LAMMPS (7 Aug 2019)
  using 1 OpenMP thread(s) per MPI task

# Input written to comply with LAMMPS 2017-08-11 00:00:00

# Atomic Configuration
units           metal
boundary        p p p
box             tilt large
atom_style      charge
read_data       monoclinic_9x9x9.lmp
  triclinic box = (0 0 0) to (92.5227 92.8198 92.5839) with tilt (-0.0952302 -0.293317 -0.265415)
  4 by 8 by 5 MPI processor grid
  reading atoms ...
  39366 atoms
  read_data CPU = 0.07353 secs
group           lithium type 1
12393 atoms in group lithium
group           scandium type 2
3645 atoms in group scandium
group           chloride type 3
23328 atoms in group chloride
variable        T1 equal 300
variable        dt equal 0.001

# Potential Setup
pair_style      buck/coul/long 12.0
pair_coeff      * * 0.0 1.0 0.0
pair_coeff      1 1    360.530000  0.161000   0.000000 # Li Li
pair_coeff      1 3    421.040000  0.344000   0.000000 # Li Cl
pair_coeff      3 3   1227.200000  0.321000  14.530000 # Cl Cl
pair_coeff      2 3  12131.350000  0.250700   0.000000 # Sc Cl

kspace_style    pppm 1e-05

# General Setup
timestep        ${dt}
timestep        0.001

# Thermodynamic Information Output
thermo_style    custom step temp epair emol etotal press lx ly lz fmax cpu cpuremain
thermo          1000

# Intial Atom Velocity
velocity        all create ${T1} 226196 dist gaussian rot yes
velocity        all create 300 226196 dist gaussian rot yes

# Stage 0: npt_equilibriation
restart         0
fix             int all npt aniso 1.0 1.0 $(1000*dt) temp ${T1} ${T1} $(100*dt)
fix             int all npt aniso 1.0 1.0 1 temp ${T1} ${T1} $(100*dt)
fix             int all npt aniso 1.0 1.0 1 temp 300 ${T1} $(100*dt)
fix             int all npt aniso 1.0 1.0 1 temp 300 300 $(100*dt)
fix             int all npt aniso 1.0 1.0 1 temp 300 300 0.10000000000000000555
run             50000
PPPM initialization ...
  using 12-bit tables for long-range coulomb (../kspace.cpp:323)
  G vector (1/distance) = 0.265467
  grid = 81 81 81
  stencil order = 5
  estimated absolute RMS force accuracy = 0.000177575
  estimated relative force accuracy = 1.23319e-05
  using double precision MKL FFT
  3d grid and FFT values/proc = 10557 4374
Neighbor list info ...
  update every 1 steps, delay 10 steps, check yes
  max neighbors/atom: 2000, page size: 100000
  master list distance cutoff = 14
  ghost atom cutoff = 14
  binsize = 7, bins = 14 14 14
  1 neighbor lists, perpetual/occasional/extra = 1 0 0
  (1) pair buck/coul/long, perpetual
      attributes: half, newton on
      pair build: half/bin/newton/tri
      stencil: half/bin/3d/newton/tri
      bin: standard
Per MPI rank memory allocation (min/avg/max) = 4.199 | 4.267 | 4.689 Mbytes
Step Temp E_pair E_mol TotEng Press Lx Ly Lz Fmax CPU CPULeft 
       0          300   -266217.01            0   -264690.52   -738.38684    92.522657    92.819769    92.583922    2.7005784            0            0 
    1000     313.1621   -274629.74            0   -273036.27   -755.77729    98.413907    98.696306    99.943117    2.8346069    6.9598131    341.03084 
    2000     294.8987   -274997.75            0   -273497.21   -49.536469    97.782874    98.906655    100.53032    3.3480903    14.096645    338.31951 
    3000     300.5978   -275101.48            0   -273571.94   -96.268476    97.617402    99.304527    100.46774    2.9462367    21.129058    331.02193 
    4000    299.49592   -275190.32            0   -273666.39   -111.70702    97.570881    99.673722    100.29818    3.1325306     28.16199     323.8629 
    5000    299.89665   -275244.93            0   -273718.95   -49.233288    97.328478    99.899345    100.36761    3.1127581    34.971531    314.74379 
    6000    300.23651   -275296.79            0   -273769.09   -43.488079    97.167462    100.19347      100.293    3.0041359     42.05186    308.38031 
    7000    300.77112   -275331.63            0   -273801.21   -84.638518    97.125559     100.3659    100.19083    2.8008441    48.969422    300.81217 
    8000    300.15748   -275374.64            0   -273847.34    92.074792    96.972315    100.56613     100.0629    3.0424736    55.987901    293.93649 
    9000    299.75377   -275370.43            0   -273845.18    58.596235    96.920557    100.72333    100.01827    3.5099977    63.197303    287.89883 
   10000    299.09426   -275400.64            0   -273878.75   -43.579843    96.846937    100.89164    99.985458    3.6744831    70.101756    280.40703 
   11000    301.30167   -275421.13            0   -273888.01   -53.366652    96.768798    101.01502    99.880228    2.7841578    76.914078    272.69537 
   12000     299.7732   -275444.92            0   -273919.57   -66.210824     96.77842    101.17345    99.729797    2.9470776     83.80212    265.37338 
   13000    298.82341   -275448.49            0   -273927.97    47.186837    96.730247    101.07192    99.822828    2.9791267    90.910621    258.74561 
   14000    299.74922    -275447.9            0   -273922.68   -218.45958    96.645282    101.16731    99.831121    3.0684912    97.832977    251.57051 
   15000    299.21117   -275475.32            0   -273952.83    7.5782122    96.627709    101.31436    99.746832    3.1297419    105.10311     245.2406 
   16000    299.52243    -275465.8            0   -273941.73   -130.36592    96.556984    101.38654    99.719126    3.0437738    112.03024    238.06425 
   17000    299.84403   -275497.64            0   -273971.93    154.54371    96.487109    101.38567    99.688733    2.8971835    119.08032    231.15591 
   18000    300.79323   -275484.11            0   -273953.58    25.343563    96.518963    101.45213     99.67717    3.0553796    125.91416    223.84739 
   19000    297.41789   -275501.36            0      -273988   0.58019942    96.473476     101.5854    99.572712    2.9073026     133.0882    217.14391 
   20000    300.48694   -275516.79            0   -273987.81    113.45819    96.446545    101.61904    99.513764    3.2852176    139.99884    209.99826 
   21000    298.27098   -275522.21            0   -274004.51    116.85025    96.469896    101.64388    99.467895    2.8122664    147.22365    203.30885 
   22000    299.89095   -275512.92            0   -273986.98     25.84163    96.603741    101.61301    99.483971    2.8482407    153.90065    195.87355 
   23000    297.41952   -275536.21            0   -274022.85    30.453055    96.396428    101.66371    99.571401    3.3096157     161.1481    189.17386 
   24000    298.93805   -275526.91            0   -274005.81     53.24642    96.334105    101.71764    99.540334    3.1559464    167.91065     181.9032 
   25000    298.37433   -275533.78            0   -274015.55    -148.3415    96.248745     101.9205    99.545627    2.9937607    174.97347    174.97348 
   26000    299.29818   -275544.38            0   -274021.45    57.170654    96.348263    101.80316    99.464864    3.0526389    182.07278    168.06718 
   27000    298.49374   -275552.54            0    -274033.7   -50.453799     96.34598    101.85476    99.388752    2.9151116    189.11939     161.1017 
   28000     301.3456   -275559.08            0   -274025.74   -184.54052    96.152487    102.02897    99.420981    3.2146043    195.87899    153.90492 
   29000    297.74139   -275577.19            0   -274062.18   -170.10141    96.240536    101.92116    99.383117    3.0348376    202.92984    146.94919 
   30000    301.25869   -275565.88            0   -274032.98    61.286111    96.165944    102.07153    99.268253    3.2532094    210.02552    140.01701 
   31000    300.09387   -275582.35            0   -274055.37   -94.457109      96.1662    102.01926    99.411482    3.1643216    216.86282    132.91592 
   32000    300.47289   -275575.74            0   -274046.84    162.30964    96.204088    102.03729    99.283295    3.6833119    224.12037    126.06771 
   33000    297.94764   -275588.58            0   -274072.53   -69.996949    96.195177    102.08765    99.266315    3.2349299    230.98802    118.99383 
   34000    300.35758   -275586.38            0   -274058.07    -194.4903    96.184646    102.13062    99.324627    2.8907609    238.00845    112.00398 
   35000    298.79736   -275595.44            0   -274075.07   -90.795104    96.042182    102.16819    99.382007    3.1303117    245.01102    105.00472 
   36000    301.28516   -275603.85            0   -274070.81    133.85046    96.061924    102.21628     99.18518    3.2955068     252.1175    98.045694 
   37000    297.90233   -275605.83            0      -274090    -44.77897    96.089624    102.27966    99.249081    2.9233769    259.07778     91.02733 
   38000    300.09625   -275602.84            0   -274075.85    16.568348    95.956529    102.30728     99.29244    2.8449246    266.34504     84.10896 
   39000    302.33922   -275604.85            0   -274066.45    131.07132    96.027517    102.22832    99.322037     2.948354    272.99889    76.999686 
   40000    300.74698   -275595.41            0   -274065.11   -273.87346    96.092319    102.20582    99.330737    2.9800972     280.2148      70.0537 
   41000     299.6557   -275618.45            0    -274093.7     103.1493    96.029989    102.30122    99.128432    3.9867126    286.81427    62.959231 
   42000    302.35227   -275613.16            0   -274074.69   -196.28052     96.01124    102.29997    99.229731    2.8876035    293.92175    55.985095 
   43000     299.7891   -275619.78            0   -274094.36   -93.387106    96.001691    102.24627    99.324345    3.1231274    301.00543    49.000885 
   44000    297.76726   -275626.36            0   -274111.23    63.093179    96.054668    102.36811    99.160027    3.4118977    308.12723    42.017349 
   45000    300.02117   -275620.77            0   -274094.16   -62.477699    95.932619    102.43449    99.156127    3.5005272    314.90474    34.989416 
   46000    299.97019   -275626.86            0   -274100.52   -88.019852    96.065568    102.39359    99.237643    3.1631532    321.95132    27.995767 
   47000    300.40197    -275627.7            0   -274099.16   -68.538159    96.033706    102.31384    99.206638    3.2052461    328.77432    20.985595 
   48000    300.15986   -275623.76            0   -274096.45    44.866189    95.945835    102.45913    99.161141    3.5816113    335.78225    13.990927 
   49000     300.6957   -275632.03            0   -274101.99   -190.88684    96.086028    102.31082    99.167671    2.9853666    342.87952    6.9975412 
   50000    299.58039   -275641.91            0   -274117.54    203.26913    95.879572    102.38374    99.150755    3.2040237    349.90086            0 
Loop time of 349.901 on 160 procs for 50000 steps with 39366 atoms

Performance: 12.346 ns/day, 1.944 hours/ns, 142.897 timesteps/s
99.0% CPU use with 160 MPI tasks x 1 OpenMP threads

MPI task timing breakdown:
Section |  min time  |  avg time  |  max time  |%varavg| %total
---------------------------------------------------------------
Pair    | 72.349     | 78.078     | 88.075     |  31.4 | 22.31
Kspace  | 186.29     | 196.74     | 203.16     |  20.8 | 56.23
Neigh   | 2.3256     | 2.4938     | 2.8573     |   5.9 |  0.71
Comm    | 31.403     | 33.835     | 35.402     |  16.0 |  9.67
Output  | 0.003274   | 0.0033268  | 0.0046425  |   0.2 |  0.00
Modify  | 26.777     | 28.572     | 35.407     |  30.3 |  8.17
Other   |            | 10.18      |            |       |  2.91

Nlocal:    246.037 ave 260 max 230 min
Histogram: 5 5 14 15 27 25 29 20 11 9
Nghost:    3861.64 ave 3929 max 3797 min
Histogram: 3 6 16 28 34 31 19 15 3 5
Neighs:    57014.6 ave 60978 max 52060 min
Histogram: 4 5 9 18 23 28 32 20 13 8

Total # of neighbors = 9122341
Ave neighs/atom = 231.731
Neighbor list builds = 1206
Dangerous builds = 0

# Stage 1: nvt_equilibriation
unfix           int
restart         0
fix             int all nvt temp ${T1} ${T1} $(100*dt)
fix             int all nvt temp 300 ${T1} $(100*dt)
fix             int all nvt temp 300 300 $(100*dt)
fix             int all nvt temp 300 300 0.10000000000000000555
run             6000000
PPPM initialization ...
  using 12-bit tables for long-range coulomb (../kspace.cpp:323)
  G vector (1/distance) = 0.266933
  grid = 90 90 90
  stencil order = 5
  estimated absolute RMS force accuracy = 0.000139286
  estimated relative force accuracy = 9.67285e-06
  using double precision MKL FFT
  3d grid and FFT values/proc = 13050 4968
Per MPI rank memory allocation (min/avg/max) = 4.418 | 4.521 | 4.882 Mbytes
Step Temp E_pair E_mol TotEng Press Lx Ly Lz Fmax CPU CPULeft 
   50000    299.58039   -275641.97            0   -274117.61     202.6724    95.879572    102.38374    99.150755    3.2038059            0            0 
   51000    300.46827   -275649.33            0   -274120.45    132.48517    95.879572    102.38374    99.150755    3.0548739    7.1158991    42688.284 
   52000    301.71048    -275641.1            0    -274105.9    132.58014    95.879572    102.38374    99.150755     2.993134     14.20915    42613.244 
   53000    298.42872   -275644.69            0   -274126.19     50.28879    95.879572    102.38374    99.150755    3.0602299    21.334759    42648.185 
   54000    300.00277   -275642.38            0   -274115.87    168.71915    95.879572    102.38374    99.150755    3.0445683    28.255604    42355.152 
   55000    300.04277      -275654            0   -274127.28    162.08566    95.879572    102.38374    99.150755     2.834854    35.511593    42578.401 
   56000    299.64735   -275650.75            0   -274126.04    50.523222    95.879572    102.38374    99.150755    3.0555626    42.506908    42464.402 
   57000    298.73592   -275646.78            0   -274126.72   -13.941248    95.879572    102.38374    99.150755    3.0788041    49.764473    42605.499 
   58000    298.94324   -275646.98            0   -274125.86    95.607087    95.879572    102.38374    99.150755    3.5230414    56.605435    42397.472 
   59000     299.6044   -275660.96            0   -274136.47    172.04829    95.879572    102.38374    99.150755      3.30675    63.797097    42467.602 
   60000    300.31242   -275663.27            0   -274135.18    -90.52652    95.879572    102.38374    99.150755    3.2551007    70.803111    42411.064 
   61000    300.58312   -275644.76            0    -274115.3   -61.832503    95.879572    102.38374    99.150755    2.8519742    77.980546    42456.863 
   62000    299.01529   -275673.63            0   -274152.15   -109.26243    95.879572    102.38374    99.150755    3.1387439    84.830242    42330.291 
   63000    300.93166   -275673.12            0   -274141.89  -0.71889717    95.879572    102.38374    99.150755     3.467877    92.045836    42390.648 
   64000    301.38687   -275663.35            0    -274129.8    34.252737    95.879572    102.38374    99.150755    3.1594056    99.058732    42354.684 
   65000    300.07145   -275670.04            0   -274143.18    -239.9768    95.879572    102.38374    99.150755    3.3264419    106.14648    42352.447 
   66000    299.63029   -275661.65            0   -274137.04    58.910546    95.879572    102.38374    99.150755    3.0002937    113.36011    42396.682 
   67000    299.95743   -275676.42            0   -274150.14   -124.37944    95.879572    102.38374    99.150755    2.8298805    120.42376    42382.081 
   68000    299.44436   -275681.51            0   -274157.83    82.807101    95.879572    102.38374    99.150755    3.3733059    127.59373    42403.652 
   69000    301.12054      -275671            0    -274138.8    90.070851    95.879572    102.38374    99.150755    3.2289363    134.63512    42381.719 
   70000    301.52669   -275682.18            0   -274147.91    -43.01075    95.879572    102.38374    99.150755    2.8864531    141.80453    42399.554 
   71000    299.67836   -275680.31            0   -274155.44     366.1594    95.879572    102.38374    99.150755    3.0307239     148.7109    42340.118 
   72000    302.15912   -275671.87            0   -274134.39   -75.733334    95.879572    102.38374    99.150755    3.3759248    155.92065    42367.892 
   73000    299.72823   -275693.15            0   -274168.04   -60.279685    95.879572    102.38374    99.150755    3.0207811    162.91668    42337.088 
   74000    299.62311   -275681.81            0   -274157.23   -61.053806    95.879572    102.38374    99.150755    3.6390585    170.14471    42366.034 
   75000    299.72897   -275670.45            0   -274145.33    41.255502    95.879572    102.38374    99.150755    2.9364074    177.14719    42338.178 
   76000    300.08874   -275689.18            0   -274162.23   -35.448117    95.879572    102.38374    99.150755    3.0782531    184.21552    42327.059 
   77000    300.68243   -275685.18            0   -274155.21   -42.120102    95.879572    102.38374    99.150755    2.8376964     191.1838    42294.106 
   78000    299.07407   -275680.68            0   -274158.89   -26.356989    95.879572    102.38374    99.150755    3.2553547    198.39317    42314.429 
   79000    300.74225   -275699.93            0   -274169.65   -115.84531    95.879572    102.38374    99.150755    3.0455795    205.26481    42263.317 
   80000    299.62427    -275680.6            0   -274156.01   -127.32457    95.879572    102.38374    99.150755    2.8078611    212.57539    42302.502 
   81000    299.70093   -275691.23            0   -274166.26    2.5766151    95.879572    102.38374    99.150755    3.0864944    219.59298    42282.275 
   82000    300.60859   -275694.65            0   -274165.05   -141.50691    95.879572    102.38374    99.150755    3.7219941    226.54746    42251.102 
   83000    300.27371   -275693.11            0   -274165.22    -66.13257    95.879572    102.38374    99.150755    3.1953908    233.69466    42256.244 
   84000    300.67913   -275691.98            0   -274162.02   -123.43801    95.879572    102.38374    99.150755    3.3419692    240.68778    42233.626 
   85000     302.3229   -275697.79            0   -274159.48   -111.06514    95.879572    102.38374    99.150755    3.1913934    247.70929     42216.74 
   86000    298.20837   -275700.98            0    -274183.6   -156.95655    95.879572    102.38374    99.150755    3.3193045    254.74961    42203.519 
   87000    301.24333   -275698.88            0   -274166.06   -50.506034    95.879572    102.38374    99.150755      3.51374    261.93377    42213.813 
   88000     299.6929   -275698.51            0   -274173.58   -68.272973    95.879572    102.38374    99.150755    2.8138238    268.88615    42186.822 
   89000    302.65163   -275704.62            0   -274164.63   -156.29036    95.879572    102.38374    99.150755    2.8863398    276.11265    42202.757 
   90000    299.00969   -275696.86            0    -274175.4   -87.218734    95.879572    102.38374    99.150755    3.3324751    283.01546    42169.304 
   91000    299.55964    -275696.6            0   -274172.34    25.684223    95.879572    102.38374    99.150755    3.1445511    290.26326    42187.287 
   92000    300.60137   -275693.48            0   -274163.92   -128.55306    95.879572    102.38374    99.150755    3.3262682    297.27137    42170.067 
   93000    299.01691   -275708.89            0   -274187.39   -224.31287    95.879572    102.38374    99.150755    3.0710501    304.38753    42168.291 
   94000    299.77615   -275699.15            0   -274173.79   -260.95471    95.879572    102.38374    99.150755    3.3007875    311.42821    42156.055 
   95000    299.81168   -275702.76            0   -274177.22   -12.829316    95.879572    102.38374    99.150755    5.0759691    318.54797    42154.515 
   96000    299.32508   -275705.27            0   -274182.21   -62.371634    95.879572    102.38374    99.150755    3.1707135    325.41321    42119.788 
   97000    300.73525   -275704.33            0    -274174.1   -283.43344    95.879572    102.38374    99.150755    3.0084966     332.5426    42119.704 
   98000    299.76362   -275710.66            0   -274185.37   -73.063934    95.879572    102.38374    99.150755    3.1891594    339.45122    42091.952 
   99000    299.48566   -275703.02            0   -274179.14   -268.05127    95.879572    102.38374    99.150755    2.9226515    346.48578    42080.344 
  100000     302.9017   -275712.33            0   -274171.06   -97.074637    95.879572    102.38374    99.150755    3.1459316    353.54525    42071.885 
  101000     299.3272   -275713.16            0   -274190.08   -273.41073    95.879572    102.38374    99.150755    3.2898754    360.54452    42056.458 
  102000     300.1631   -275704.52            0   -274177.19   -301.92736    95.879572    102.38374    99.150755    3.3121917    367.71375    42060.795 
  103000    300.90531   -275704.46            0   -274173.36   -137.33823    95.879572    102.38374    99.150755    3.1975219    374.83129    42058.899 
  104000    298.58609   -275704.29            0   -274184.99   -224.48938    95.879572    102.38374    99.150755    3.4140287    381.96883    42059.012 
  105000    301.23819   -275710.03            0   -274177.23   -365.02183    95.879572    102.38374    99.150755    3.2547282    388.86613    42032.894 
  106000    299.79102   -275701.79            0   -274176.36   -313.22462    95.879572    102.38374    99.150755    3.0087958    396.01543     42034.21 
  107000    299.25144   -275707.91            0   -274185.22    -455.9522    95.879572    102.38374    99.150755    3.4219123    402.83673     42001.03 
  108000    301.98457   -275700.33            0   -274163.73   -10.249747    95.879572    102.38374    99.150755    2.9551656    410.08921    42012.933 
  109000    299.20501   -275708.52            0   -274186.07   -342.58965    95.879572    102.38374    99.150755    3.1515662    416.95793    41985.543 
  110000     299.8421   -275722.67            0   -274196.98   -393.88563    95.879572    102.38374    99.150755    3.2311523    424.17321    41993.148 
  111000    300.27611   -275715.51            0   -274187.61   -354.85302    95.879572    102.38374    99.150755    2.8804125    431.24709    41986.499 
  112000    301.07673   -275705.32            0   -274173.34   -193.30718    95.879572    102.38374    99.150755     3.146884    438.36454    41984.011 
  113000    300.75821   -275709.89            0   -274179.53   -229.24643    95.879572    102.38374    99.150755    3.4509908    445.35774    41969.665 
  114000    297.79088   -275723.95            0    -274208.7   -315.56532    95.879572    102.38374    99.150755     3.061367    452.62228    41980.716 
  115000    299.90699   -275702.09            0   -274176.06   -313.05302    95.879572    102.38374    99.150755      3.40752     459.6472    41969.326 
  116000    300.36768   -275716.27            0    -274187.9   -273.26612    95.879572    102.38374    99.150755    3.2189356    466.71704    41962.105 
  117000    301.11631   -275702.27            0   -274170.09   -94.225608    95.879572    102.38374    99.150755    3.2660723    473.82472     41958.24 
  118000    297.53506   -275712.48            0   -274198.52   -443.20754    95.879572    102.38374    99.150755    2.9777784    480.81727    41944.236 
  119000    301.03269    -275712.1            0   -274180.35   -264.46188    95.879572    102.38374    99.150755    2.7590828    487.88979     41937.31 
  120000    302.14479   -275711.25            0   -274173.84   -232.70587    95.879572    102.38374    99.150755    3.6752864    494.90114    41925.197 
  121000    298.56191   -275723.24            0   -274204.06   -489.84385    95.879572    102.38374    99.150755    2.9717223    502.06675    41926.109 
  122000    297.65698   -275731.52            0   -274216.95   -132.77775    95.879572    102.38374    99.150755    3.4600045    509.04369    41911.264 
  123000    298.11212   -275712.16            0   -274195.27   -121.16675    95.879572    102.38374    99.150755    2.8699037    516.18728    41910.165 
  124000    300.30367   -275715.25            0   -274187.21   -435.74604    95.879572    102.38374    99.150755    3.2092428    523.15569    41894.873 
  125000    298.79799   -275728.26            0   -274207.88   -386.52484    95.879572    102.38374    99.150755    2.8618577    530.30516    41894.108 
  126000    299.27963   -275721.87            0   -274199.04   -515.45322    95.879572    102.38374    99.150755    3.7069201     537.2305    41875.704 
  127000    298.19357   -275739.02            0   -274221.72   -368.11118    95.879572    102.38374    99.150755    2.9160743    544.42065    41877.968 
  128000    300.95813   -275711.94            0   -274180.56   -290.74476    95.879572    102.38374    99.150755    2.8851039    551.41201    41864.897 
  129000    300.08036   -275739.43            0   -274212.52   -294.91502    95.879572    102.38374    99.150755    2.8902266    558.56413    41864.028 
  130000    298.51385   -275722.33            0   -274203.39   -450.87004    95.879572    102.38374    99.150755    3.0726036    565.44475    41842.912 
  131000    299.52267   -275720.66            0   -274196.59   -357.57001    95.879572    102.38374    99.150755    3.4196403    572.61578    41843.368 
  132000    297.71255    -275732.4            0   -274217.54   -218.79579    95.879572    102.38374    99.150755    3.4038117    579.59923    41830.101 
  133000    300.01784   -275724.55            0   -274197.96   -568.77604    95.879572    102.38374    99.150755    3.1428378    586.65441    41822.098 
  134000    300.50919   -275725.92            0   -274196.83   -433.14428    95.879572    102.38374    99.150755     3.106512    593.77793    41818.931 
  135000    298.38649   -275727.84            0   -274209.55    -500.6848    95.879572    102.38374    99.150755    2.9558572    600.82932    41810.652 
  136000    298.39752   -275734.25            0   -274215.91   -405.11635    95.879572    102.38374    99.150755    3.0672627    607.82971    41798.894 
  137000    300.69105   -275736.74            0   -274206.73    -409.0633    95.879572    102.38374    99.150755    2.9127549    614.91096    41792.742 
  138000    299.83632   -275725.31            0   -274199.64   -307.92863    95.879572    102.38374    99.150755    3.2214074    622.07422    41792.077 
  139000    298.86308   -275729.19            0   -274208.48    -250.9554    95.879572    102.38374    99.150755    3.1715018     629.0053    41775.847 
  140000    301.51481   -275729.23            0   -274195.02   -447.92101    95.879572    102.38374    99.150755    3.1727835    636.22615    41778.851 
  141000    300.33805   -275739.73            0   -274211.51   -442.08668    95.879572    102.38374    99.150755    2.8615475    643.03147    41754.648 
  142000     301.1276   -275726.42            0   -274194.18   -250.04425    95.879572    102.38374    99.150755    2.9342785    650.23273     41756.25 
  143000     299.0697    -275726.6            0   -274204.83   -276.27657    95.879572    102.38374    99.150755    2.9308426    657.19924    41742.752 
  144000    300.01215   -275740.93            0   -274214.37   -336.88278    95.879572    102.38374    99.150755    3.1690929    664.35124    41741.047 
  145000    299.59983   -275737.04            0   -274212.58   -518.58999    95.879572    102.38374    99.150755    2.8914627    671.41313    41733.627 
  146000    300.62369   -275745.51            0   -274215.84   -289.62892    95.879572    102.38374    99.150755    2.8537419    678.55931    41731.398 
  147000    301.13034   -275738.86            0   -274206.62   -353.95967    95.879572    102.38374    99.150755    3.3079578    685.54841    41719.508 
  148000    302.84957   -275735.54            0   -274194.54   -379.51455    95.879572    102.38374    99.150755    3.1248059    692.77418    41721.971 
  149000    300.66136   -275738.23            0   -274208.37   -663.70285    95.879572    102.38374    99.150755    3.0107211     700.0251    41725.739 
  150000     301.2361   -275730.91            0   -274198.12   -435.55573    95.879572    102.38374    99.150755    2.9982303    707.01587    41713.936 
  151000    299.89879   -275748.11            0   -274222.12   -534.13271    95.879572    102.38374    99.150755    3.1128521    714.16366      41711.4 
  152000     299.8428   -275735.71            0   -274210.02   -133.58319    95.879572    102.38374    99.150755    3.2101603    721.18302    41701.347 
  153000    299.43343   -275728.14            0   -274204.52   -292.40345    95.879572    102.38374    99.150755    3.4011122    728.45142    41705.612 
  154000      299.254   -275737.77            0   -274215.07   -311.30294    95.879572    102.38374    99.150755    3.0002661    735.47626    41695.846 
  155000    299.97412   -275744.53            0   -274218.16   -392.89692    95.879572    102.38374    99.150755    3.5185586    742.58692    41690.951 
  156000    298.48523   -275732.49            0    -274213.7   -407.36775    95.879572    102.38374    99.150755     2.962849    749.49514    41674.758 
  157000    298.28888   -275745.37            0   -274227.57   -511.60791    95.879572    102.38374    99.150755    2.8963041    756.73897    41677.222 
  158000    300.36995   -275741.99            0   -274213.61   -481.85015    95.879572    102.38374    99.150755    3.3097875    763.58562    41657.838 
  159000    300.36577   -275742.71            0   -274214.35   -520.38674    95.879572    102.38374    99.150755    3.1574425    770.75208    41655.968 
  160000    299.57868   -275735.85            0   -274211.49   -321.73401    95.879572    102.38374    99.150755    3.1733596    777.69897    41642.245 
  161000    300.69908   -275733.92            0   -274203.87   -291.77831    95.879572    102.38374    99.150755    3.1944409     784.8949    41641.856 
  162000    300.90872   -275746.15            0   -274215.03    -411.6039    95.879572    102.38374    99.150755     3.494676    791.94751    41633.812 
  163000    299.78056   -275739.22            0   -274213.84   -432.43188    95.879572    102.38374    99.150755     3.173992    799.11794    41631.923 
  164000    301.28351   -275738.23            0    -274205.2   -492.79922    95.879572    102.38374    99.150755    2.9245562    806.07049    41618.692 
  165000     300.1458   -275750.27            0   -274223.03   -421.69804    95.879572    102.38374    99.150755    2.9950931    813.23615    41616.476 
  166000    301.76665   -275746.75            0   -274211.26   -309.52519    95.879572    102.38374    99.150755    3.5681934    820.28534    41608.267 
  167000    298.25295   -275751.27            0   -274233.67    -374.3841    95.879572    102.38374    99.150755     2.824401    827.16244    41591.424 
  168000    300.58939   -275755.25            0   -274225.76   -352.21606    95.879572    102.38374    99.150755    3.1433872    834.27185    41586.331 
  169000    299.12018   -275738.59            0   -274216.57   -412.98702    95.879572    102.38374    99.150755    3.3023343    841.15986    41570.262 
  170000    299.64956   -275745.79            0   -274221.08   -366.52981    95.879572    102.38374    99.150755    2.9774167    848.28352    41565.893 
  171000    300.53243   -275738.26            0   -274209.05   -494.10872    95.879572    102.38374    99.150755    3.0568403    855.27465    41555.038 
  172000    300.62416    -275742.3            0   -274212.62   -474.32186    95.879572    102.38374    99.150755    2.9016309    862.49944    41555.506 
  173000    300.86965   -275746.08            0   -274215.16   -313.66518    95.879572    102.38374    99.150755     3.056775    869.45306    41542.891 
  174000    299.00908   -275741.64            0   -274220.18    -476.2977    95.879572    102.38374    99.150755    2.9615867    876.69826    41544.185 
  175000    300.48647   -275744.74            0   -274215.77   -458.08561    95.879572    102.38374    99.150755    2.9584381     883.5406    41526.408 
  176000    301.42546    -275757.6            0   -274223.84   -293.09965    95.879572    102.38374    99.150755    3.1304291    890.81479    41528.937 
  177000     299.9885   -275757.88            0   -274231.44    -430.4835    95.879572    102.38374    99.150755    3.4076838    897.72646    41514.547 
  178000    300.13842   -275734.59            0   -274207.39   -513.37147    95.879572    102.38374    99.150755    3.5841546    904.79833    41507.623 
  179000    298.63358   -275740.26            0   -274220.71   -375.70543    95.879572    102.38374    99.150755    2.8477505     911.7819    41496.678 
  180000    298.48911      -275745            0   -274226.19   -353.61411    95.879572    102.38374    99.150755    3.1052596    918.86927    41490.482 
  181000    299.76779   -275757.52            0   -274232.21    -348.7225    95.879572    102.38374    99.150755    3.2021401    925.85773     41479.84 
  182000    299.48008   -275748.47            0   -274224.62   -403.47395    95.879572    102.38374    99.150755    3.9531045    933.02712    41477.296 
  183000    300.82065   -275752.04            0   -274221.37   -420.89221    95.879572    102.38374    99.150755    3.0252567    940.09439    41470.179 
  184000    301.17583   -275757.23            0   -274224.75   -452.83754    95.879572    102.38374    99.150755    3.1037132    947.15219    41462.647 
  185000    302.28126   -275767.93            0   -274229.83   -344.43254    95.879572    102.38374    99.150755    2.9124937    954.23245    41456.098 
  186000    300.28931   -275761.67            0    -274233.7   -509.63646    95.879572    102.38374    99.150755    3.6158381    961.24905    41446.797 
  187000     300.8924   -275746.26            0   -274215.22   -347.88961    95.879572    102.38374    99.150755    3.0420588    968.33922    41440.678 
  188000    300.42432   -275765.01            0   -274236.35   -241.53755    95.879572    102.38374    99.150755      3.13286    975.32363    41430.052 
  189000    300.38425   -275749.92            0   -274221.47   -434.45342    95.879572    102.38374    99.150755      3.25094    982.41305    41423.906 
  190000    298.38454      -275754            0   -274235.72   -554.45777    95.879572    102.38374    99.150755    3.0217428    989.39212    41413.127 
  191000    301.06567   -275763.74            0   -274231.82   -463.56741    95.879572    102.38374    99.150755    2.9951326     996.5247    41408.782 
  192000     300.2738   -275763.51            0   -274235.62   -405.68269    95.879572    102.38374    99.150755    3.9162337    1003.3543    41391.898 
  193000    300.50455   -275751.73            0   -274222.67   -381.41103    95.879572    102.38374    99.150755    2.9482148    1010.5568    41390.428 
  194000    299.50446   -275750.62            0   -274226.65   -520.22269    95.879572    102.38374    99.150755    3.2490554    1017.3755    41373.271 
  195000    301.14486    -275761.1            0   -274228.77    -581.9081    95.879572    102.38374    99.150755    3.2669727    1024.4834    41367.934 
  196000    300.09846   -275766.53            0   -274239.53   -578.24549    95.879572    102.38374    99.150755    3.9383857    1031.4371    41356.389 
  197000    298.13507   -275762.23            0   -274245.22   -382.62463    95.879572    102.38374    99.150755     3.127738    1038.6009    41353.272 
  198000    299.53419   -275757.94            0   -274233.81   -429.56901    95.879572    102.38374    99.150755    3.1145048    1045.6046     41343.77 
  199000    301.06315   -275763.58            0   -274231.68    -604.6304    95.879572    102.38374    99.150755    3.0965102    1052.8379    41343.321 
  200000    301.11254   -275746.39            0   -274214.23   -540.14562    95.879572    102.38374    99.150755    3.1442582    1059.8951    41335.909 
  201000    299.48709   -275765.44            0   -274241.55   -527.82629    95.879572    102.38374    99.150755    3.2567034    1066.8617    41324.995 
  202000    301.19819   -275763.74            0   -274231.14   -586.55726    95.879572    102.38374    99.150755    3.0984467    1074.0457    41322.494 
  203000     301.0698   -275775.57            0   -274243.63   -568.21903    95.879572    102.38374    99.150755    3.3563109    1081.0115    41311.597 
  204000    299.22427   -275762.17            0   -274239.62   -597.81599    95.879572    102.38374    99.150755    3.0184625    1088.0557    41303.725 
  205000    300.29063   -275775.69            0   -274247.71   -700.29584    95.879572    102.38374    99.150755    3.2868509    1095.0695    41294.716 
  206000    300.61422   -275756.61            0   -274226.99   -553.17225    95.879572    102.38374    99.150755    3.4601482    1102.1335    41287.617 
  207000    302.07385   -275758.29            0   -274221.24   -434.42685    95.879572    102.38374    99.150755    3.1290756    1108.9825    41272.516 
  208000    300.07834   -275770.22            0   -274243.32   -593.34627    95.879572    102.38374    99.150755    3.1486524    1116.0873    41266.975 
  209000    300.78762    -275768.1            0    -274237.6   -465.23916    95.879572    102.38374    99.150755    3.2597349    1122.9097    41251.041 
  210000    299.29325   -275765.75            0   -274242.85   -438.52996    95.879572    102.38374    99.150755    3.2073429    1130.0719    41247.625 
  211000    299.83232   -275757.06            0   -274231.42   -489.91193    95.879572    102.38374    99.150755    3.2916452     1136.911    41232.442 
  212000     300.6287   -275769.29            0   -274239.59    -516.8609    95.879572    102.38374    99.150755    3.3248356    1144.1788    41232.814 
  213000    298.01833   -275765.72            0   -274249.31   -729.30821    95.879572    102.38374    99.150755    2.7330973    1151.2208    41225.004 
  214000    299.78248   -275762.52            0   -274237.13    -519.0698    95.879572    102.38374    99.150755    3.0248128    1158.3508    41220.338 
  215000    303.36809   -275753.75            0   -274210.12   -736.24054    95.879572    102.38374    99.150755    3.4364652    1165.2495    41207.458 
  216000    298.70744   -275765.61            0   -274245.69   -594.58469    95.879572    102.38374    99.150755    3.3313654    1172.4883    41206.608 
  217000    300.65198   -275764.78            0   -274234.96    -568.1612    95.879572    102.38374    99.150755     3.297564    1179.4462    41195.868 
  218000    298.93051   -275774.52            0   -274253.46   -492.34626    95.879572    102.38374    99.150755    3.2772647    1186.5352     41189.72 
  219000    301.29407    -275759.3            0   -274226.21   -576.71727    95.879572    102.38374    99.150755    3.5465999    1193.7218    41186.934 
  220000    299.71502   -275775.15            0    -274250.1   -517.10436    95.879572    102.38374    99.150755     3.087463    1200.8266    41181.288 
  221000    301.57435   -275767.07            0   -274232.56   -645.65237    95.879572    102.38374    99.150755    3.2054223     1207.762    41169.853 
  222000     298.8152   -275773.13            0   -274252.66   -496.03208    95.879572    102.38374    99.150755    3.0419082    1214.7844    41161.417 
  223000    299.10524   -275780.16            0   -274258.21   -509.43442    95.879572    102.38374    99.150755    3.2791538    1221.8522    41154.524 
  224000    301.47653   -275761.28            0   -274227.27   -566.14303    95.879572    102.38374    99.150755    3.2164297    1228.7465    41141.824 
  225000    299.45855   -275775.37            0   -274251.63     -607.076    95.879572    102.38374    99.150755    3.4112285    1235.8185    41135.102 
  226000    300.97758   -275781.24            0   -274249.76   -766.95355    95.879572    102.38374    99.150755     3.087482    1242.7186    41122.688 
  227000    300.80162   -275765.33            0   -274234.76   -518.25323    95.879572    102.38374    99.150755    3.4336884    1249.9425    41120.989 
  228000     299.8221   -275773.23            0   -274247.63   -603.35833    95.879572    102.38374    99.150755    3.1762702    1256.9379    41111.754 
  229000    298.05483   -275768.42            0   -274251.82   -823.43047    95.879572    102.38374    99.150755     2.952929    1264.0461    41106.213 
  230000    298.95408   -275774.02            0   -274252.84   -554.45159    95.879572    102.38374    99.150755    3.2379318    1270.9653    41094.543 
  231000     300.7514    -275773.8            0   -274243.48   -650.20748    95.879572    102.38374    99.150755    2.6802493    1278.0817    41089.269 
  232000    300.32927   -275778.75            0   -274250.58   -526.03957    95.879572    102.38374    99.150755    3.1891278    1284.9805    41077.013 
  233000    299.30077   -275773.36            0   -274250.42   -668.07014    95.879572    102.38374    99.150755    3.1957207    1292.2241    41075.779 
  234000    301.51722   -275775.28            0   -274241.06   -482.46297    95.879572    102.38374    99.150755    2.9627245    1299.2445    41067.424 
  235000    299.24242   -275780.48            0   -274257.84   -768.84687    95.879572    102.38374    99.150755    3.4291778    1306.2245    41057.813 
  236000    298.50563    -275779.2            0    -274260.3   -666.98151    95.879572    102.38374    99.150755    2.7054739      1313.29    41050.903 
  237000    298.70882   -275775.26            0   -274255.33   -801.35464    95.879572    102.38374    99.150755    3.2790259    1320.3247    41043.034 
  238000    300.44107   -275778.63            0   -274249.89   -495.81192    95.879572    102.38374    99.150755     3.480651    1327.4851     41039.06 
  239000    301.89026   -275790.58            0   -274254.46   -637.91506    95.879572    102.38374    99.150755    3.1223755     1334.597    41033.562 
  240000    298.21734   -275770.84            0   -274253.41   -743.11155    95.879572    102.38374    99.150755    2.9867956    1341.6936    41027.579 
  241000    302.06386   -275785.97            0   -274248.97   -551.22815    95.879572    102.38374    99.150755     2.916108    1348.5757    41015.058 
  242000    298.06397    -275771.8            0   -274255.16   -465.02483    95.879572    102.38374    99.150755    3.0687799    1355.7293    41010.813 
  243000    301.38684   -275760.71            0   -274227.15   -671.41261    95.879572    102.38374    99.150755    3.1799752    1362.7309    41001.961 
  244000    300.92545   -275771.61            0    -274240.4   -625.97717    95.879572    102.38374    99.150755    3.2843315    1370.0764     41003.42 
  245000    299.40122   -275780.08            0   -274256.63   -592.09948    95.879572    102.38374    99.150755    2.8568689    1377.0115    40992.574 
  246000    300.73396   -275773.15            0   -274242.92   -756.46105    95.879572    102.38374    99.150755    3.6849489    1384.1013    40986.346 
  247000    300.83431   -275781.77            0   -274251.02   -807.40055    95.879572    102.38374    99.150755     2.939729    1391.0399    40975.658 
  248000    299.01831   -275781.59            0   -274260.09   -820.27996    95.879572    102.38374    99.150755    2.7531388    1398.2209    40972.108 
  249000    301.29713   -275785.14            0   -274252.04   -671.52814    95.879572    102.38374    99.150755    2.9533843    1405.0109    40957.128 
  250000    300.88602   -275773.57            0   -274242.56   -746.82157    95.879572    102.38374    99.150755    3.4679341    1412.1901    40953.512 
  251000    298.55045   -275778.91            0   -274259.78   -839.09811    95.879572    102.38374    99.150755     3.112275    1419.1457    40943.413 
  252000    301.30089   -275784.54            0   -274251.42   -617.82884    95.879572    102.38374    99.150755    2.9833753    1426.1732    40935.407 
  253000    298.13148   -275775.93            0   -274258.94   -810.42449    95.879572    102.38374    99.150755    3.1385648    1433.3416    40931.434 
  254000    298.67173   -275770.53            0    -274250.8    -496.1491    95.879572    102.38374    99.150755    3.1486014    1440.3102    40921.753 
  255000     298.9583   -275783.45            0   -274262.25    -570.3097    95.879572    102.38374    99.150755    3.0504411    1447.3296    40913.536 
  256000    303.36798   -275783.47            0   -274239.84   -778.82702    95.879572    102.38374    99.150755     3.180321    1454.4694    40908.716 
  257000    299.18148   -275789.21            0   -274266.87   -784.95182    95.879572    102.38374    99.150755    3.4059158    1461.5345    40901.784 
  258000    301.63025   -275786.22            0   -274251.43    -796.2944    95.879572    102.38374    99.150755    3.1753152     1468.542    40893.246 
  259000    299.02904   -275795.09            0   -274273.53   -602.06178    95.879572    102.38374    99.150755     3.502487    1475.7133    40889.261 
  260000    299.11199   -275785.23            0   -274263.25   -604.23901    95.879572    102.38374    99.150755    2.9220586    1482.7074     40880.36 
  261000    300.92789   -275777.37            0   -274246.15   -704.59066    95.879572    102.38374    99.150755    2.8607371    1489.8584    40875.783 
  262000    299.43878   -275780.49            0   -274256.85    -717.8859    95.879572    102.38374    99.150755    2.9078575    1496.6875    40862.392 
  263000    300.92465   -275776.26            0   -274245.06   -599.54387    95.879572    102.38374    99.150755    3.1734315    1503.8809    40858.962 
  264000    300.14169   -275794.18            0   -274266.96   -542.76504    95.879572    102.38374    99.150755    2.8229754    1510.8025    40848.146 
  265000    300.57736    -275777.7            0   -274248.27   -737.15386    95.879572    102.38374    99.150755     2.978263    1517.8704    40841.305 
  266000    300.42966    -275774.7            0   -274246.02   -843.83321    95.879572    102.38374    99.150755    3.5084853    1524.7013    40828.112 
  267000    297.38044   -275783.27            0    -274270.1   -703.15291    95.879572    102.38374    99.150755    2.9435185    1531.9788    40826.881 
  268000     300.7054   -275794.76            0   -274264.67   -639.80461    95.879572    102.38374    99.150755    3.0542652     1538.893     40815.96 
  269000    301.35667   -275773.04            0   -274239.64    -739.4436    95.879572    102.38374    99.150755    3.0815774    1545.9918    40809.949 
  270000    298.34567   -275782.55            0   -274264.47   -552.98571    95.879572    102.38374    99.150755    3.1997159    1553.0924    40803.972 
  271000    299.75679   -275776.11            0   -274250.85   -564.34457    95.879572    102.38374    99.150755    2.9762897    1560.1309    40796.363 
  272000    300.98477    -275788.6            0   -274257.09   -651.44033    95.879572    102.38374    99.150755    3.1403911    1567.1624    40788.579 
  273000    299.31119   -275785.02            0   -274262.03   -801.18995    95.879572    102.38374    99.150755    3.4606287    1574.3103    40783.813 
  274000     300.4275   -275793.19            0   -274264.52   -657.59827    95.879572    102.38374    99.150755    3.0227071    1581.3489    40776.211 
  275000    302.49284   -275783.04            0   -274243.86   -685.34488    95.879572    102.38374    99.150755    3.4481078     1588.453    40770.293 
  276000    297.84796   -275781.79            0   -274266.24   -719.60448    95.879572    102.38374    99.150755    3.3528079    1595.5257    40763.563 
  277000    302.75196   -275790.03            0   -274249.53    -804.2353    95.879572    102.38374    99.150755    2.9083556    1602.5469     40755.52 
  278000     298.8818   -275771.65            0   -274250.84   -737.77081    95.879572    102.38374    99.150755    2.9614837    1609.7388    40751.809 
  279000    299.96484   -275796.03            0   -274269.71   -624.27006    95.879572    102.38374    99.150755    3.2458225    1616.6373    40740.673 
  280000    302.10889   -275787.22            0   -274249.99   -368.86248    95.879572    102.38374    99.150755    3.0638672    1623.8986    40738.673 
  281000    300.54906   -275790.96            0   -274261.67   -743.64046    95.879572    102.38374    99.150755    3.0580679    1630.8338    40728.487 
  282000    299.42117   -275786.58            0   -274263.02   -653.28459    95.879572    102.38374    99.150755    3.2519751     1638.013    40724.393 
  283000    303.36329    -275784.8            0   -274241.19   -549.67346    95.879572    102.38374    99.150755    2.8981953    1644.8607    40712.068 
  284000     300.3843   -275790.33            0   -274261.88   -378.96636    95.879572    102.38374    99.150755    3.0026855     1652.084    40709.045 
  285000    300.45629   -275790.15            0   -274261.33   -740.44924    95.879572    102.38374    99.150755    3.2273716    1659.1411    40701.909 
  286000    301.15833   -275799.16            0   -274266.77   -583.40081    95.879572    102.38374    99.150755    3.1525982    1666.1329    40693.179 
  287000    300.99055   -275791.23            0   -274259.69   -496.08143    95.879572    102.38374    99.150755    3.1043707    1673.3078    40688.916 
  288000    296.80625    -275788.8            0   -274278.55   -632.27024    95.879572    102.38374    99.150755    3.1934241    1680.3045    40680.313 
  289000    299.75401   -275787.34            0    -274262.1   -607.39906    95.879572    102.38374    99.150755    3.2969777    1687.2958    40671.595 
  290000     297.1775   -275799.48            0   -274287.34    -748.2857    95.879572    102.38374    99.150755    4.1028362    1694.4698    40667.276 
  291000    301.76011   -275787.23            0   -274251.78   -637.26694    95.879572    102.38374    99.150755     3.174295    1701.5133    40659.813 
  292000    300.70523   -275794.16            0   -274264.07   -721.18947    95.879572    102.38374    99.150755    3.0729507    1708.4509    40649.836 
  293000     299.1457   -275793.63            0   -274271.48   -567.68051    95.879572    102.38374    99.150755    2.8135979    1715.6199    40645.365 
  294000    298.63013   -275778.32            0    -274258.8   -678.78846    95.879572    102.38374    99.150755    3.2390847    1722.5977    40636.363 
  295000    298.94238   -275795.11            0   -274273.99   -685.29508    95.879572    102.38374    99.150755    2.8493303    1729.8143    40632.984 
  296000    300.18881   -275791.13            0   -274263.67   -738.35427    95.879572    102.38374    99.150755    3.1822865    1736.8623    40625.632 
  297000    300.07797   -275799.09            0    -274272.2   -684.30887    95.879572    102.38374    99.150755    3.0586027    1744.0257    40620.971 
  298000    300.25547    -275788.8            0   -274261.01   -592.21392    95.879572    102.38374    99.150755    2.6048392    1751.0504    40613.073 
  299000    299.90479   -275793.32            0    -274267.3   -552.24117    95.879572    102.38374    99.150755     3.410709    1758.1644    40607.244 
  300000    299.57857   -275795.17            0   -274270.82   -794.22417    95.879572    102.38374    99.150755    3.2519059    1765.0243    40595.559 
  301000    301.27304   -275785.44            0   -274252.46   -518.49448    95.879572    102.38374    99.150755    3.0438289    1772.1949    40591.031 
  302000    297.81229   -275783.33            0   -274267.96   -770.81635    95.879572    102.38374    99.150755    3.2496978    1779.1944    40582.578 
  303000    299.04912   -275797.88            0   -274276.22   -672.35914    95.879572    102.38374    99.150755    3.4753871    1786.2197    40574.722 
  304000    298.76155   -275791.08            0   -274270.89   -724.71935    95.879572    102.38374    99.150755    3.1057046    1793.2478    40566.937 
  305000    297.87537   -275799.96            0   -274284.27   -821.94481    95.879572    102.38374    99.150755     2.766173    1800.2386    40558.317 
  306000    299.87141   -275802.72            0   -274276.87   -819.11312    95.879572    102.38374    99.150755    3.0659626    1807.2307    40549.738 
  307000    299.98044   -275787.27            0   -274260.87   -596.61877    95.879572    102.38374    99.150755     3.396729    1814.3515    40544.049 
  308000    300.93221   -275793.94            0    -274262.7   -805.87151    95.879572    102.38374    99.150755    3.3422004    1821.4127    40537.023 
  309000    298.90251   -275796.99            0   -274276.07   -786.00242    95.879572    102.38374    99.150755    3.1054694     1828.368    40527.648 
  310000    301.84122   -275800.15            0   -274264.28   -718.71524    95.879572    102.38374    99.150755    2.9068167    1835.5172    40522.573 
  311000    303.10048   -275802.42            0   -274260.15   -546.82076    95.879572    102.38374    99.150755    3.1407064    1842.4963     40513.74 
  312000    301.06033   -275789.56            0   -274257.67   -673.46447    95.879572    102.38374    99.150755    3.0348683    1849.5929    40507.497 
  313000    300.62694   -275793.07            0   -274263.38   -725.34117    95.879572    102.38374    99.150755    2.9588021    1856.5114     40497.36 
  314000    298.53708   -275783.88            0   -274264.83   -855.36647    95.879572    102.38374    99.150755    3.9064797    1863.6618    40492.289 
  315000      298.688   -275798.51            0   -274278.69    -694.8785    95.879572    102.38374    99.150755     2.926629    1870.5665    40481.883 
  316000    298.36282   -275793.18            0   -274275.01   -810.53787    95.879572    102.38374    99.150755    2.8869873    1877.7208    40476.884 
  317000    300.85786   -275784.59            0   -274253.73   -889.91879    95.879572    102.38374    99.150755    3.4355306    1884.6611    40467.274 
  318000    301.44397   -275810.43            0   -274276.59   -708.33345    95.879572    102.38374    99.150755    3.1134952    1891.8462    40462.919 
  319000    299.32979   -275783.38            0   -274260.29   -796.13738    95.879572    102.38374    99.150755    3.2182549    1898.8942    40455.624 
  320000    299.79815   -275793.28            0   -274267.81   -681.66479    95.879572    102.38374    99.150755    3.4670577    1905.9939    40449.427 
  321000    301.89223   -275787.73            0   -274251.61    -765.4512    95.879572    102.38374    99.150755    2.9161639    1913.1425    40444.256 
  322000    299.30081   -275808.36            0   -274285.42   -767.78007    95.879572    102.38374    99.150755     3.675176    1920.1496    40436.092 
  323000    300.65951   -275804.09            0   -274274.24   -836.59658    95.879572    102.38374    99.150755    3.4585557    1927.4147    40433.348 
  324000    299.31667    -275800.3            0   -274277.27   -803.14471    95.879572    102.38374    99.150755    3.3505337     1934.457    40425.914 
  325000    302.31463   -275803.71            0   -274265.43   -829.45317    95.879572    102.38374    99.150755    3.0278794    1941.5258    40419.037 
  326000    299.35929   -275793.83            0   -274270.59   -948.96142    95.879572    102.38374    99.150755    3.3409652    1948.4004    40408.131 
  327000    301.15993   -275807.31            0   -274274.91   -624.99003    95.879572    102.38374    99.150755     3.188652    1955.5757    40403.464 
  328000    300.52622   -275799.22            0   -274270.04   -725.62691    95.879572    102.38374    99.150755    3.2791755    1962.5522     40394.69 
  329000    297.77165   -275806.22            0   -274291.06   -886.97005    95.879572    102.38374    99.150755    2.7691013    1969.7421    40390.302 
  330000    300.61156   -275789.57            0   -274259.97   -640.52923    95.879572    102.38374    99.150755    3.0277264    1976.7431    40382.037 
  331000    300.31742   -275793.08            0   -274264.96   -708.13523    95.879572    102.38374    99.150755    2.8922873    1983.9688    40378.355 
  332000    299.87244   -275809.48            0   -274283.63   -1012.2903    95.879572    102.38374    99.150755    3.0878522    1990.9009    40368.692 
  333000    299.27468   -275791.08            0   -274268.27   -550.58003    95.879572    102.38374    99.150755    3.0834115    1998.0203    40362.835 
  334000    298.45005    -275801.7            0   -274283.09   -701.70208    95.879572    102.38374    99.150755    3.0229735    2004.9752    40353.656 
  335000    300.42437   -275787.49            0   -274258.83   -735.71739    95.879572    102.38374    99.150755     2.946226    2012.2166    40350.238 
  336000    298.62811   -275791.12            0   -274271.61   -838.56547    95.879572    102.38374    99.150755    3.3248082    2019.3036    40343.709 
  337000    298.26998   -275801.54            0   -274283.84    -927.9375    95.879572    102.38374    99.150755    3.1363486    2026.2301    40333.981 
  338000    299.76763   -275793.62            0    -274268.3   -864.27025    95.879572    102.38374    99.150755    3.2373233     2033.414    40329.378 
  339000    300.37253   -275795.41            0   -274267.01   -1016.5385    95.879572    102.38374    99.150755    3.4026783    2040.4669    40322.167 
  340000    298.89995    -275800.7            0    -274279.8   -954.70356    95.879572    102.38374    99.150755    2.9814857    2047.5415    40315.387 
  341000     300.6782   -275792.33            0   -274262.38   -933.99284    95.879572    102.38374    99.150755    3.1841055    2054.6434    40309.139 
  342000    300.50727      -275801            0   -274271.92   -969.57084    95.879572    102.38374    99.150755    2.8578975     2061.735    40302.683 
  343000    300.27454   -275797.49            0   -274269.59   -718.69213    95.879572    102.38374    99.150755    3.0754385    2068.7188    40294.123 
  344000    300.12665   -275797.74            0    -274270.6    -540.8391    95.879572    102.38374    99.150755    3.2063215    2075.8484    40288.406 
  345000    298.26727   -275791.23            0   -274273.55   -884.06292    95.879572    102.38374    99.150755    3.3011476    2082.7547    40278.358 
  346000    300.74632   -275801.23            0   -274270.94    -865.3027    95.879572    102.38374    99.150755    3.1102357    2090.0004    40274.873 
  347000    299.28582   -275793.69            0   -274270.83   -692.23759    95.879572    102.38374    99.150755    2.8043808    2096.9265    40265.224 
  348000    299.90572   -275791.51            0    -274265.5   -829.20135    95.879572    102.38374    99.150755    3.2016943    2104.0504    40259.381 
  349000    302.13336   -275792.74            0   -274255.39   -886.29073    95.879572    102.38374    99.150755    3.3644997    2111.2689    40255.331 
  350000    300.31562   -275799.55            0   -274271.45   -822.09736    95.879572    102.38374    99.150755     3.119838    2118.6162    40253.707 
  351000    300.82862   -275791.28            0   -274260.57   -1080.4677    95.879572    102.38374    99.150755    3.1089246    2125.5421    40244.068 
  352000    298.96557   -275800.08            0   -274278.85   -758.10366    95.879572    102.38374    99.150755    3.7220934    2132.7338    40239.461 
  353000    299.85681   -275797.92            0   -274272.15   -867.85575    95.879572    102.38374    99.150755    3.0658138    2139.7131    40230.843 
  354000    299.48234   -275796.27            0    -274272.4   -1181.5333    95.879572    102.38374    99.150755    3.1786969    2146.7216    40222.784 
  355000    300.01511   -275814.93            0   -274288.36   -944.15233    95.879572    102.38374    99.150755    3.1297407    2153.7803    40215.669 
  356000    299.42546   -275809.42            0   -274285.84   -849.00601    95.879572    102.38374    99.150755    3.0919928    2160.7521    40206.936 
  357000     299.5075   -275801.57            0   -274277.58   -931.17622    95.879572    102.38374    99.150755     3.295897    2167.8531    40200.611 
  358000    299.65782   -275806.96            0    -274282.2   -885.60762    95.879572    102.38374    99.150755    2.9821412    2174.8671    40192.674 
  359000    301.05771   -275793.81            0   -274261.93   -982.26931    95.879572    102.38374    99.150755    2.9603743    2181.9697    40186.375 
  360000    300.70713   -275795.45            0   -274265.35   -770.21094    95.879572    102.38374    99.150755    3.1647524    2189.0032      40178.8 
  361000    298.43665   -275809.77            0   -274291.23   -834.36973    95.879572    102.38374    99.150755    3.0982733    2196.1703    40173.674 
  362000    300.04855    -275797.8            0   -274271.05   -723.72484    95.879572    102.38374    99.150755    3.2822227    2203.0656     40163.58 
  363000    300.14849   -275807.14            0   -274279.89   -861.54685    95.879572    102.38374    99.150755     2.898809    2210.3255    40160.131 
  364000    300.02442   -275809.14            0   -274282.51   -949.05405    95.879572    102.38374    99.150755    2.9151224    2217.2693    40150.934 
  365000    300.56009   -275795.58            0   -274266.24   -822.12667    95.879572    102.38374    99.150755    3.2746342    2224.4117    40145.336 
  366000    298.03488    -275811.2            0    -274294.7   -779.58004    95.879572    102.38374    99.150755    3.4073763    2231.3871    40136.723 
  367000    300.43847    -275810.6            0   -274281.88   -874.99823    95.879572    102.38374    99.150755    2.8972595    2238.5184    40130.914 
  368000    299.39488   -275800.81            0   -274277.39    -607.4331    95.879572    102.38374    99.150755     3.131813    2245.4172    40120.946 
  369000     298.3744   -275817.31            0   -274299.08   -801.22827    95.879572    102.38374    99.150755    2.9193222    2252.6537    40117.008 
  370000    299.31028   -275799.85            0   -274276.86   -855.31004    95.879572    102.38374    99.150755    2.9759504    2259.6353    40108.526 
  371000    299.87722   -275803.69            0   -274277.82     -831.744    95.879572    102.38374    99.150755    2.8429362    2266.6849    40101.258 
  372000    300.69384   -275802.67            0   -274272.65   -935.51478    95.879572    102.38374    99.150755    3.3277403    2273.8992    40096.893 
  373000    298.33467   -275812.41            0   -274294.38   -760.81946    95.879572    102.38374    99.150755    3.0800544    2280.9999    40090.515 
  374000    303.61338   -275809.94            0   -274265.06   -774.33901    95.879572    102.38374    99.150755    3.0416136    2288.1212    40084.494 
  375000    299.25063   -275811.89            0    -274289.2   -852.98807    95.879572    102.38374    99.150755    3.2612306    2295.2053    40077.816 
  376000    300.50928   -275810.08            0   -274280.99   -938.95839    95.879572    102.38374    99.150755     3.303184    2302.4127    40073.281 
  377000    300.33619   -275805.13            0   -274276.92   -692.25016    95.879572    102.38374    99.150755    3.6015717    2309.4271    40065.383 
  378000    296.99679   -275806.91            0    -274295.7   -912.37821    95.879572    102.38374    99.150755    3.3785316    2316.6197    40060.569 
  379000    297.98579   -275809.94            0    -274293.7    -872.5496    95.879572    102.38374    99.150755    2.9349975     2323.492    40050.223 
  380000    299.47978   -275804.75            0    -274280.9   -898.43055    95.879572    102.38374    99.150755    3.0656847    2330.8139    40047.621 
  381000    302.66562   -275794.49            0   -274254.43   -843.16254    95.879572    102.38374    99.150755    3.2230116    2337.7779     40038.86 
  382000    298.49112   -275808.16            0   -274289.34   -839.33228    95.879572    102.38374    99.150755    3.7611674    2344.8113    40031.296 
  383000    300.58659   -275818.27            0   -274288.79   -951.29074    95.879572    102.38374    99.150755    2.9188452    2351.8073    40023.099 
  384000    299.93073   -275798.92            0   -274272.78   -732.61904    95.879572    102.38374    99.150755    2.8983602    2358.9649     40017.65 
  385000    299.43994   -275813.55            0    -274289.9   -934.21989    95.879572    102.38374    99.150755    3.2160918    2365.7957    40006.665 
  386000    299.44823   -275794.91            0   -274271.22   -887.99173    95.879572    102.38374    99.150755    3.2453112    2372.9114    40000.507 
  387000     300.0779   -275818.81            0   -274291.91   -626.33315    95.879572    102.38374    99.150755    3.4641576    2379.9311     39992.73 
  388000    300.47222   -275817.21            0    -274288.3   -813.96158    95.879572    102.38374    99.150755    3.1635583    2386.8687    39983.582 
  389000    301.30189   -275803.68            0   -274270.56   -706.33067    95.879572    102.38374    99.150755    3.3361798     2393.953    39976.897 
  390000    298.96195   -275814.15            0   -274292.93   -987.75585    95.879572    102.38374    99.150755    2.9687673    2400.8351    39966.843 
  391000    302.98877   -275809.23            0   -274267.53   -676.20989    95.879572    102.38374    99.150755    3.5679632    2407.8844    39959.583 
  392000    300.10529   -275807.37            0   -274280.33   -872.10266    95.879572    102.38374    99.150755    3.8820104    2414.9489    39952.576 
  393000    299.39365   -275804.42            0   -274281.01   -782.22729    95.879572    102.38374    99.150755    3.0029538    2422.1168    39947.274 
  394000    300.64332   -275799.68            0   -274269.91   -845.71188    95.879572    102.38374    99.150755    3.4103357    2429.0392    39937.923 
  395000    299.05107    -275813.9            0   -274292.23   -827.61882    95.879572    102.38374    99.150755    2.7842096    2436.1048    39930.934 
  396000    298.24124   -275812.02            0   -274294.47   -900.93467    95.879572    102.38374    99.150755    2.9926958    2442.9876    39920.958 
  397000    302.20557    -275812.2            0   -274274.48   -827.36517    95.879572    102.38374    99.150755    3.6059345    2450.2722    39917.547 
  398000    301.18271   -275813.77            0   -274281.26   -859.77968    95.879572    102.38374    99.150755    3.6428885    2457.2529    39909.176 
  399000    297.72138   -275814.42            0   -274299.52   -936.96224    95.879572    102.38374    99.150755    3.3042433     2464.315    39902.132 
  400000    299.59981   -275801.74            0   -274277.28   -807.82355    95.879572    102.38374    99.150755    3.2001904    2471.3388    39894.469 
  401000    298.53409   -275822.18            0   -274303.14   -882.00567    95.879572    102.38374    99.150755    3.0085376    2478.5165    39889.287 
  402000    300.11015   -275822.35            0   -274295.29   -598.62352    95.879572    102.38374    99.150755    2.9824842     2485.499    39880.961 
  403000    299.01441    -275813.1            0   -274291.62   -651.28669    95.879572    102.38374    99.150755    3.0202594    2492.7156    39876.388 
  404000    297.93027   -275807.21            0   -274291.25   -655.60341    95.879572    102.38374    99.150755    3.1000859     2499.752    39868.925 
  405000     300.0867   -275808.76            0   -274281.82   -789.67721    95.879572    102.38374    99.150755    3.1061459    2506.7446     39860.77 
  406000    301.52861   -275817.81            0   -274283.53   -853.44904    95.879572    102.38374    99.150755    3.2725213    2513.8559    39854.502 
  407000    300.36594   -275815.05            0   -274286.69   -789.57659    95.879572    102.38374    99.150755    3.0343246    2520.8944    39847.079 
  408000    299.22792   -275813.38            0   -274290.81    -752.9792    95.879572    102.38374    99.150755    3.2482549    2528.1298     39842.76 
  409000    300.77807   -275815.27            0   -274284.81    -852.6627    95.879572    102.38374    99.150755    2.8153428    2535.0887    39834.081 
  410000     299.2853   -275819.45            0   -274296.59   -764.22621    95.879572    102.38374    99.150755    2.8567088    2542.2805    39829.061 
  411000    300.73868   -275830.54            0   -274300.29   -797.88426    95.879572    102.38374    99.150755    3.0840898    2549.2278     39820.21 
  412000    300.50244   -275810.68            0   -274281.63    -876.7682    95.879572    102.38374    99.150755    3.1613962    2556.2951    39813.237 
  413000    299.65021    -275816.5            0   -274291.78   -795.69724    95.879572    102.38374    99.150755    2.9918546    2563.2157    39803.986 
  414000    299.68459   -275816.36            0   -274291.47   -740.21353    95.879572    102.38374    99.150755    2.7639846    2570.4318    39799.323 
  415000    299.77813   -275829.24            0   -274303.87   -746.39138    95.879572    102.38374    99.150755    3.0024856    2577.2816    39788.991 
  416000    300.00608   -275818.22            0    -274291.7   -655.82952    95.879572    102.38374    99.150755    3.3782313    2584.4857    39784.132 
  417000    301.68491   -275834.29            0   -274299.22   -903.62932    95.879572    102.38374    99.150755     2.828983    2591.7748    39780.566 
  418000    299.77467   -275814.39            0   -274289.04   -736.46926    95.879572    102.38374    99.150755    3.6643027    2598.9843     39775.76 
  419000    301.44298   -275829.03            0   -274295.19   -1001.1344    95.879572    102.38374    99.150755    3.6724935    2605.8482    39765.667 
  420000     300.8727   -275819.84            0    -274288.9   -663.88402    95.879572    102.38374    99.150755    3.8900307    2612.9904    39759.827 
  421000    301.05074   -275816.29            0   -274284.45   -713.50554    95.879572    102.38374    99.150755    3.6185468    2619.9392    39751.045 
  422000    299.46384   -275820.85            0   -274297.08   -727.16918    95.879572    102.38374    99.150755    3.1346176    2626.9337    39742.965 
  423000    300.96253   -275818.46            0   -274287.06   -703.98941    95.879572    102.38374    99.150755    3.2495525    2634.0931    39737.378 
  424000    300.31185   -275823.71            0   -274295.63   -682.25393    95.879572    102.38374    99.150755    3.2496258    2641.1572    39730.349 
  425000    298.23194   -275825.37            0   -274307.87   -756.88444    95.879572    102.38374    99.150755    3.3609733    2648.2704    39724.057 
  426000    301.19149   -275824.87            0   -274292.31   -828.66267    95.879572    102.38374    99.150755    3.3550748    2655.3197    39716.803 
  427000    299.87787   -275822.82            0   -274296.94   -1031.0517    95.879572    102.38374    99.150755    3.0455857    2662.3857    39709.801 
  428000    301.02858   -275819.53            0    -274287.8   -1006.6444    95.879572    102.38374    99.150755     3.285003     2669.416    39702.267 
  429000    300.57215   -275815.79            0   -274286.38   -780.56907    95.879572    102.38374    99.150755      3.58414    2676.5108    39695.692 
  430000    300.20452   -275824.55            0   -274297.01   -753.58145    95.879572    102.38374    99.150755    2.9187283    2683.4185    39686.348 
  431000    301.77594   -275823.51            0   -274287.98   -766.54392    95.879572    102.38374    99.150755     2.840456    2690.6866    39682.331 
  432000    299.21483   -275811.44            0   -274288.93   -654.72612    95.879572    102.38374    99.150755    3.1538335    2697.5131    39671.803 
  433000    300.47459   -275817.77            0   -274288.86   -652.76379    95.879572    102.38374    99.150755    2.9688346    2704.6583    39665.968 
  434000    301.57578   -275822.78            0   -274288.27   -809.93853    95.879572    102.38374    99.150755    2.7406108    2711.6942    39658.527 
  435000    302.06793   -275817.66            0   -274280.64    -908.2249    95.879572    102.38374    99.150755    3.4061253    2718.7504    39651.386 
  436000    302.52166   -275810.21            0   -274270.88   -707.31464    95.879572    102.38374    99.150755    2.9198961    2725.6004    39641.245 
  437000    299.20002   -275819.34            0   -274296.92   -801.00102    95.879572    102.38374    99.150755    3.1138302    2732.8601    39637.065 
  438000    301.25949   -275811.58            0   -274278.67   -883.11729    95.879572    102.38374    99.150755    3.1236859    2739.8998    39629.685 
  439000    298.67451   -275818.43            0   -274298.68   -854.40213    95.879572    102.38374    99.150755     3.035487    2746.8291    39620.716 
  440000    300.26251   -275824.98            0   -274297.15   -861.93202    95.879572    102.38374    99.150755    3.2443291    2753.9117    39613.961 
  441000    299.91568    -275816.6            0   -274290.53   -740.29756    95.879572    102.38374    99.150755    2.8675525    2760.8881    39605.681 
  442000    301.17653   -275823.58            0    -274291.1    -642.1311    95.879572    102.38374    99.150755    3.0232977    2767.8844    39597.694 
  443000    299.16541   -275829.79            0   -274307.54    -914.4237    95.879572    102.38374    99.150755    3.3266345    2774.9109    39590.141 
  444000    300.26021   -275814.16            0   -274286.34   -789.69171    95.879572    102.38374    99.150755    3.0340871    2782.1422    39585.506 
  445000    301.54951   -275828.73            0   -274294.35    -956.9768    95.879572    102.38374    99.150755    3.1582667    2789.0912    39576.852 
  446000     302.3992   -275816.33            0   -274277.63   -886.09524    95.879572    102.38374    99.150755    3.2510493      2796.22     39570.75 
  447000    298.58142   -275820.22            0   -274300.94   -782.40433    95.879572    102.38374    99.150755    2.9507447    2803.1338    39561.609 
  448000    300.21159   -275809.83            0   -274282.26   -890.47156    95.879572    102.38374    99.150755    3.0991299     2810.329     39556.44 
  449000    300.17284   -275817.76            0   -274290.38   -843.78573    95.879572    102.38374    99.150755    2.9460524    2817.3954    39549.453 
  450000    300.16601   -275806.26            0   -274278.92   -916.99936    95.879572    102.38374    99.150755      2.86156    2824.4249    39541.949 
  451000    301.56682   -275827.82            0   -274293.35    -934.3579    95.879572    102.38374    99.150755    3.0404833    2831.4009      39533.7 
  452000    299.27746   -275819.62            0    -274296.8    -759.1593    95.879572    102.38374    99.150755    3.0330441    2838.5185    39527.429 
  453000    299.65988   -275805.21            0   -274280.45    -1041.506    95.879572    102.38374    99.150755    3.1648419    2845.4952    39519.198 
  454000    298.35033    -275810.4            0    -274292.3   -879.78512    95.879572    102.38374    99.150755    3.7343707    2852.6404    39513.306 
  455000    301.14336    -275825.4            0   -274293.09   -976.92247    95.879572    102.38374    99.150755    3.0551765    2859.5346    39503.941 
  456000    300.78866   -275825.37            0   -274294.85   -933.81682    95.879572    102.38374    99.150755    2.8141192    2866.5967    39496.902 
  457000    299.87149   -275825.86            0   -274300.01   -813.70232    95.879572    102.38374    99.150755     3.574357     2873.712    39490.592 
  458000    299.32789   -275814.99            0   -274291.91   -773.23155    95.879572    102.38374    99.150755    3.1081296    2880.7272    39482.909 
  459000    299.18321   -275835.99            0   -274313.64   -680.67889    95.879572    102.38374    99.150755    2.9181558    2887.7624      39475.5 
  460000    299.18356    -275823.2            0   -274300.85   -1010.7427    95.879572    102.38374    99.150755    3.4496877    2894.8238    39468.452 
  461000    298.56489   -275821.38            0   -274302.18   -868.11821    95.879572    102.38374    99.150755    3.9975222     2901.922    39461.903 
  462000    300.41711   -275828.58            0   -274299.96   -923.81453    95.879572    102.38374    99.150755    3.2381196    2908.8261    39452.719 
  463000    298.06821   -275812.16            0   -274295.49   -911.46868    95.879572    102.38374    99.150755    3.0476984    2916.0023    39447.227 
  464000    300.54659   -275825.35            0   -274296.07   -791.99333    95.879572    102.38374    99.150755     2.958559    2922.9781    39439.023 
  465000    299.70005   -275833.45            0   -274308.47   -845.99843    95.879572    102.38374    99.150755    2.9679488    2930.1385     39433.31 
  466000    300.59712   -275811.14            0    -274281.6   -762.41615    95.879572    102.38374    99.150755    3.0282026    2937.1504    39425.596 
  467000    300.51197   -275826.62            0   -274297.51   -809.88401    95.879572    102.38374    99.150755    3.3076935    2944.3465    39420.352 
  468000    300.65497   -275829.97            0   -274300.14   -919.14842    95.879572    102.38374    99.150755     2.860921    2951.2959    39411.803 
  469000    300.22017   -275822.92            0    -274295.3   -883.45325    95.879572    102.38374    99.150755    3.0814737    2958.4479    39405.961 
  470000    300.21747   -275823.27            0   -274295.67    -726.3769    95.879572    102.38374    99.150755    3.0594294      2965.27     39395.73 
  471000    298.05112   -275825.06            0   -274308.48   -733.38899    95.879572    102.38374    99.150755    2.9320143    2972.5153    39391.123 
  472000     299.0793    -275811.1            0   -274289.29    -810.1521    95.879572    102.38374    99.150755    2.9832238    2979.5206    39383.331 
  473000    297.82827   -275818.23            0   -274302.78   -760.23262    95.879572    102.38374    99.150755     3.917752    2986.5347    39375.659 
  474000     298.0509   -275827.85            0   -274311.27   -772.74461    95.879572    102.38374    99.150755    3.2052419    2993.6298    39369.057 
  475000    298.61829   -275817.41            0   -274297.94   -902.38096    95.879572    102.38374    99.150755    3.2778115    3000.7411    39362.663 
  476000    297.74893   -275823.68            0   -274308.64   -857.12056    95.879572    102.38374    99.150755     3.200694    3007.8082    39355.688 
  477000    300.20196    -275825.2            0   -274297.68   -719.33315    95.879572    102.38374    99.150755    3.6777173    3014.8247    39348.052 
  478000    299.90998   -275829.48            0   -274303.44   -737.27622    95.879572    102.38374    99.150755    3.0731195     3021.999    39342.474 
  479000    301.31735   -275818.37            0   -274285.17   -912.75099    95.879572    102.38374    99.150755    2.8980911    3028.9773    39334.341 
  480000    298.57812    -275815.5            0   -274296.24    -935.6207    95.879572    102.38374    99.150755     3.357559    3036.1494    39328.726 
  481000    299.00475   -275824.12            0   -274302.69   -1007.5061    95.879572    102.38374    99.150755     3.045323    3042.9997    39318.945 
  482000    300.93464   -275818.26            0   -274287.01   -774.57062    95.879572    102.38374    99.150755     3.070294    3050.1738    39313.352 
  483000    301.21415   -275831.15            0   -274298.47   -845.80255    95.879572    102.38374    99.150755    3.5690865    3057.1211    39304.835 
  484000    298.47701   -275833.85            0    -274315.1   -940.09339    95.879572    102.38374    99.150755    3.1110456    3064.2949    39299.229 
  485000    300.94479    -275824.1            0    -274292.8   -826.95498    95.879572    102.38374    99.150755    3.1271093     3071.234    39290.614 
  486000    299.06373   -275824.48            0   -274302.74   -896.06854    95.879572    102.38374    99.150755    3.1627339    3078.4254    39285.227 
  487000    301.59135   -275838.31            0   -274303.72   -858.84834    95.879572    102.38374    99.150755    3.3405019    3085.3296    39276.175 
  488000    300.32681   -275833.45            0   -274305.29   -939.47752    95.879572    102.38374    99.150755    3.3038542      3092.46    39270.005 
  489000    298.98252   -275822.13            0   -274300.81   -887.83826    95.879572    102.38374    99.150755     3.299667    3099.5505    39263.327 
  490000     296.1644   -275836.46            0   -274329.48   -781.44361    95.879572    102.38374    99.150755    3.1654862    3106.6692    39257.002 
[...]
15930000    300.08915   -275978.45            0    -274451.5   -1739.0477    95.879572    102.38374    99.150755    3.3107556    69434.417      843.333 
15931000    300.89908   -275962.15            0   -274431.08    -1681.283    95.879572    102.38374    99.150755    2.9381067    69441.504    836.30593 
15932000    300.48298    -275976.5            0   -274447.55   -1668.4472    95.879572    102.38374    99.150755    2.8196356    69448.577    829.27869 
15933000    298.55187   -275961.09            0   -274441.96   -1579.8829    95.879572    102.38374    99.150755    3.2894301    69455.769    822.25286 
15934000    301.65225   -275967.44            0   -274432.54   -1682.2603    95.879572    102.38374    99.150755    3.0501556    69462.563    815.22231 
15935000    297.40945   -275966.39            0   -274453.08   -1901.1511    95.879572    102.38374    99.150755    2.9656403    69469.653    808.19525 
15936000    301.25093    -275962.9            0   -274430.04   -1716.3912    95.879572    102.38374    99.150755    3.0294581    69476.822     801.1691 
15937000    301.20305   -275976.64            0   -274444.02   -1585.5107    95.879572    102.38374    99.150755    3.2699511    69483.782    794.14053 
15938000    299.52125   -275961.45            0   -274437.39   -1487.1069    95.879572    102.38374    99.150755     3.385079     69490.91    787.11387 
15939000      299.193   -275979.72            0   -274457.33   -1589.7513    95.879572    102.38374    99.150755    2.8817347    69497.886    780.08548 
15940000    301.28074   -275967.74            0   -274434.73   -1651.5351    95.879572    102.38374    99.150755    2.7466021    69504.694    773.05524 
15941000    298.43886    -275966.4            0   -274447.85   -1791.6333    95.879572    102.38374    99.150755    2.7576948    69511.872    766.02912 
15942000    301.23691    -275971.9            0   -274439.11   -1302.7501    95.879572    102.38374    99.150755    3.1091699    69519.094    759.00346 
15943000     298.2119   -275959.32            0   -274441.92   -1743.2376    95.879572    102.38374    99.150755    2.9646157    69526.016     751.9745 
15944000    297.65164   -275974.75            0   -274460.21   -1753.7495    95.879572    102.38374    99.150755    2.9281506    69533.215    744.94854 
15945000    299.01142   -275971.21            0   -274449.74     -1686.29    95.879572    102.38374    99.150755    3.0275848    69540.026    737.91842 
15946000    300.80748   -275963.71            0   -274433.11   -1581.7814    95.879572    102.38374    99.150755    3.2960601    69546.925    730.88927 
15947000     299.7496   -275972.84            0   -274447.62   -1605.4103    95.879572    102.38374    99.150755    2.8015047     69554.09    723.86292 
15948000    300.61353   -275977.78            0   -274448.16   -1519.9207    95.879572    102.38374    99.150755    3.3735264     69561.25    716.83648 
15949000    299.46045   -275959.92            0   -274436.17   -1480.3244    95.879572    102.38374    99.150755    3.4855756    69568.189    709.80776 
15950000    300.76377   -275967.98            0   -274437.59   -1629.1189    95.879572    102.38374    99.150755     3.249135    69575.249    702.78029 
15951000    298.92936   -275972.67            0   -274451.62   -1640.7514    95.879572    102.38374    99.150755    2.8840654    69582.057     695.7503 
15952000    299.72045   -275960.42            0   -274435.35   -1729.4292    95.879572    102.38374    99.150755    2.8226456    69589.037    688.72204 
15953000    298.61347   -275968.54            0    -274449.1   -1602.5703    95.879572    102.38374    99.150755    3.0248211    69596.271    681.69629 
15954000    299.98044   -275973.49            0   -274447.09   -1746.1467    95.879572    102.38374    99.150755    2.9195313    69603.233    674.66785 
15955000     301.7165   -275971.63            0   -274436.39   -1689.2016    95.879572    102.38374    99.150755    3.5522852    69610.306    667.64049 
15956000    300.74192   -275966.31            0   -274436.04   -1902.5039    95.879572    102.38374    99.150755     3.078743    69617.326    660.61263 
15957000    297.39467   -275969.83            0   -274456.59   -1737.7536    95.879572    102.38374    99.150755    3.0748637    69624.081    653.58227 
15958000    303.46385    -275956.7            0   -274412.58   -1788.7131    95.879572    102.38374    99.150755    3.0552908     69631.17    646.55507 
15959000    298.57185   -275968.98            0   -274449.75   -1763.1434    95.879572    102.38374    99.150755    3.1079873    69638.332    639.52853 
15960000    299.62528   -275962.07            0   -274437.48   -1491.9943    95.879572    102.38374    99.150755    4.5165587    69645.163    632.49896 
15961000    297.56634   -275983.66            0   -274469.54   -1647.7613    95.879572    102.38374    99.150755    2.8603263    69652.444    625.47347 
15962000    298.18899   -275955.39            0   -274438.11   -1665.2607    95.879572    102.38374    99.150755    2.9619263    69659.252    618.44372 
15963000    298.46784   -275976.75            0   -274458.05   -1570.2658    95.879572    102.38374    99.150755    3.7807874    69666.122    611.41456 
15964000     299.1624   -275959.04            0    -274436.8   -1911.4925    95.879572    102.38374    99.150755    3.3511451    69673.261    604.38778 
15965000    302.30004   -275976.87            0   -274438.67    -1562.681    95.879572    102.38374    99.150755    2.8355852    69680.387    597.36085 
15966000     298.1505   -275975.02            0   -274457.93   -1759.6219    95.879572    102.38374    99.150755    3.0286257    69687.349    590.33253 
15967000     299.8987   -275968.38            0    -274442.4   -1722.2137    95.879572    102.38374    99.150755     3.406346    69694.492    583.30572 
15968000     301.5494   -275972.91            0   -274438.53   -1732.3921    95.879572    102.38374    99.150755    3.5574532    69701.273     576.2759 
15969000    300.01372   -275974.21            0   -274447.65   -1823.8447    95.879572    102.38374    99.150755    3.2334362    69708.261    569.24782 
15970000    298.76654   -275967.67            0   -274447.45   -1835.7364    95.879572    102.38374    99.150755    3.1501782     69715.45    562.22137 
15971000    301.34783   -275969.51            0   -274436.15   -1774.7534    95.879572    102.38374    99.150755     3.378593    69722.364     555.1927 
15972000    299.95376   -275966.04            0   -274439.78   -1724.2215    95.879572    102.38374    99.150755     3.148345    69729.352    548.16463 
15973000    298.62671   -275970.68            0   -274451.17   -1748.8306    95.879572    102.38374    99.150755    3.6276783    69736.429    541.13726 
15974000    301.82537   -275967.58            0   -274431.79   -1717.3188    95.879572    102.38374    99.150755    3.0327658     69743.21    534.10761 
15975000    301.36415    -275975.4            0   -274441.96   -1648.0339    95.879572    102.38374    99.150755    2.9714719    69750.384    527.08099 
15976000    301.24708   -275977.63            0   -274444.79   -1576.8291    95.879572    102.38374    99.150755    3.3211513    69757.607     520.0547 
15977000    299.73232   -275962.89            0   -274437.76    -1552.683    95.879572    102.38374    99.150755    2.9514012    69764.499    513.02593 
15978000    299.29492   -275978.01            0    -274455.1   -1765.4612    95.879572    102.38374    99.150755    3.2580805    69771.652    505.99909 
15979000    298.95091   -275958.26            0    -274437.1   -1739.8303    95.879572    102.38374    99.150755    2.6836047    69778.485    498.96993 
15980000    298.73624   -275969.83            0   -274449.76     -1609.34    95.879572    102.38374    99.150755     2.831047    69785.403    491.94141 
15981000    300.99173   -275962.54            0      -274431   -1702.4963    95.879572    102.38374    99.150755    3.4352681    69792.501    484.91417 
15982000    299.60779   -275977.66            0   -274453.16   -1764.9298    95.879572    102.38374    99.150755     3.659926    69799.771    477.88808 
15983000    299.20024   -275959.29            0   -274436.86   -1637.2817    95.879572    102.38374    99.150755    3.5415756    69806.622    470.85912 
15984000    300.80255   -275971.34            0   -274440.75   -1842.4791    95.879572    102.38374    99.150755    3.4739983    69813.809    463.83243 
15985000    301.84021   -275974.32            0   -274438.46   -1691.3764    95.879572    102.38374    99.150755    3.6812081    69820.541    456.80274 
15986000    297.02726   -275971.55            0   -274460.18   -1618.7383    95.879572    102.38374    99.150755    2.7712461    69827.596    449.77518 
15987000      300.529   -275973.63            0   -274444.44    -1762.388    95.879572    102.38374    99.150755    3.6062724    69834.698    442.74791 
15988000    298.46156   -275980.79            0   -274462.12    -1659.297    95.879572    102.38374    99.150755     2.781321    69841.785    435.72053 
15989000    299.33184   -275972.88            0   -274449.78   -1777.3469    95.879572    102.38374    99.150755    2.9885288    69848.869    428.69313 
15990000    298.91432   -275984.26            0   -274463.29   -2057.2125    95.879572    102.38374    99.150755    2.8640678    69856.013    421.66608 
15991000    300.74711    -275967.7            0    -274437.4   -1710.2402    95.879572    102.38374    99.150755    3.3819801    69862.813    414.63696 
15992000    296.68552   -275965.25            0   -274455.62    -1644.565    95.879572    102.38374    99.150755    3.1518797    69869.959     407.6099 
15993000    299.83988   -275963.65            0   -274437.96   -1545.1487    95.879572    102.38374    99.150755    2.8476867    69877.135    400.58299 
15994000    299.05102    -275973.5            0   -274451.83   -1832.5205    95.879572    102.38374    99.150755    3.0756225    69884.107     393.5549 
15995000    298.45916   -275958.16            0    -274439.5   -1854.2428    95.879572    102.38374    99.150755    2.9532941    69891.294    386.52802 
15996000    301.97357   -275981.29            0   -274444.75   -1747.1804    95.879572    102.38374    99.150755    2.8396782    69898.277    379.49999 
15997000     300.6975   -275974.43            0   -274444.38    -1600.865    95.879572    102.38374    99.150755     3.173234    69905.087    372.47106 
15998000    301.66245   -275971.14            0   -274436.18   -1672.3316    95.879572    102.38374    99.150755    2.8489323    69912.215    365.44383 
15999000    300.43945   -275979.38            0   -274450.65   -1782.8194    95.879572    102.38374    99.150755    3.1100563    69919.349    358.41661 
16000000    300.84634   -275965.76            0   -274434.96   -1644.0555    95.879572    102.38374    99.150755    3.1622236    69926.115    351.38751 
16001000    298.27023   -275978.67            0   -274460.98   -1722.1423    95.879572    102.38374    99.150755    3.2213519    69933.349    344.36078 
16002000    300.34277   -275968.98            0   -274440.73   -1678.8618    95.879572    102.38374    99.150755    3.3867381    69940.076    337.33156 
16003000    300.46779      -275972            0   -274443.12   -1722.3173    95.879572    102.38374    99.150755    3.2550627    69946.916    330.30293 
16004000    299.91098   -275972.04            0   -274445.99   -1774.6692    95.879572    102.38374    99.150755    3.3303428    69954.023    323.27557 
16005000    300.73853   -275974.59            0   -274444.33   -1706.0969    95.879572    102.38374    99.150755    2.9336151     69961.13     316.2482 
16006000    301.24932   -275975.37            0   -274442.51   -1702.6956    95.879572    102.38374    99.150755    3.1330826    69967.887    309.21927 
16007000    301.41333   -275961.18            0   -274427.49   -1762.5757    95.879572    102.38374    99.150755    3.3151932    69975.071    302.19223 
16008000    298.54223   -275963.22            0   -274444.14   -1464.8632    95.879572    102.38374    99.150755     3.065337    69981.826    295.16336 
16009000    300.66512    -275968.1            0   -274438.22   -1664.6855    95.879572    102.38374    99.150755    3.5981505    69988.822    288.13553 
16010000    299.35992   -275972.46            0   -274449.22    -1609.207    95.879572    102.38374    99.150755    3.4259928    69995.994    281.10841 
16011000    299.01364   -275973.33            0   -274451.85   -1778.2215    95.879572    102.38374    99.150755    3.0197588    70002.981    274.08054 
16012000    297.25551   -275965.18            0   -274452.65   -1568.6592    95.879572    102.38374    99.150755    3.0465821    70009.943    267.05258 
16013000    299.60599   -275971.98            0   -274447.49   -1633.9962    95.879572    102.38374    99.150755     3.336259    70016.959    260.02484 
16014000    301.91527   -275979.44            0    -274443.2   -1781.8815    95.879572    102.38374    99.150755    3.1181842    70023.712    252.99615 
16015000     300.7339   -275983.38            0   -274453.15   -1586.2004    95.879572    102.38374    99.150755    2.8833175    70030.888      245.969 
16016000     298.3442    -275966.9            0   -274448.83   -1609.8064    95.879572    102.38374    99.150755    2.9690314    70038.028     238.9417 
16017000    299.21704   -275962.25            0   -274439.74    -1650.787    95.879572    102.38374    99.150755    3.3256305    70044.897    231.91347 
16018000     301.3337   -275968.92            0   -274435.64   -1540.6165    95.879572    102.38374    99.150755     2.993127    70052.192    224.88665 
16019000    300.31222   -275972.57            0   -274444.48   -1672.8761    95.879572    102.38374    99.150755    3.2528658     70059.04    217.85839 
16020000    301.15861   -275976.17            0   -274443.78   -1819.0159    95.879572    102.38374    99.150755    3.5235121    70065.873    210.83011 
16021000    299.95138   -275973.43            0   -274447.18   -1702.9183    95.879572    102.38374    99.150755    2.7810209     70073.07    203.80293 
16022000    299.48547   -275973.42            0   -274449.54   -1967.7018    95.879572    102.38374    99.150755    2.9799551    70080.206    196.77555 
16023000    299.78581   -275974.47            0   -274449.06   -1460.0919    95.879572    102.38374    99.150755    2.9385991    70087.064    189.74739 
16024000    299.82991   -275963.96            0   -274438.33   -1723.1057    95.879572    102.38374    99.150755    2.9116701    70094.276    182.72019 
16025000    300.52122   -275976.49            0   -274447.34   -1768.2449    95.879572    102.38374    99.150755    3.0866245    70100.966    175.69164 
16026000    300.42802   -275967.14            0   -274438.46   -1661.0261    95.879572    102.38374    99.150755    3.4908467    70107.931    168.66383 
16027000    300.11288    -275973.9            0   -274446.83   -1700.0301    95.879572    102.38374    99.150755    3.6957929    70115.117    161.63653 
16028000    301.83696   -275961.75            0   -274425.91   -1474.6155    95.879572    102.38374    99.150755     2.867915    70122.137    154.60884 
16029000    299.69006   -275964.88            0   -274439.96   -1384.3747    95.879572    102.38374    99.150755    2.7721223    70129.068    147.58096 
16030000    301.64624   -275969.09            0   -274434.21   -1743.1747    95.879572    102.38374    99.150755    3.4762134    70136.099     140.5533 
16031000    298.76655   -275976.06            0   -274455.83   -1695.7754    95.879572    102.38374    99.150755    3.7647493    70142.884    133.52518 
16032000    301.63635   -275974.77            0   -274439.95   -1664.9988    95.879572    102.38374    99.150755    3.2426938    70150.083    126.49784 
16033000    299.30825   -275973.82            0   -274450.84   -1643.0612    95.879572    102.38374    99.150755    3.4175757    70157.254    119.47043 
16034000    300.21082   -275975.53            0   -274447.96   -1635.3509    95.879572    102.38374    99.150755      3.45858    70164.196    112.44262 
16035000    297.95257   -275969.33            0   -274453.25    -1494.999    95.879572    102.38374    99.150755     3.100822    70171.305    105.41508 
16036000    300.45615   -275967.33            0   -274438.51   -1791.6095    95.879572    102.38374    99.150755    3.7931901    70178.191    98.387209 
16037000     299.0573   -275975.44            0   -274453.74   -1684.3922    95.879572    102.38374    99.150755    2.8438926    70185.093    91.359387 
16038000    299.81233   -275975.27            0   -274449.73   -1836.2141    95.879572    102.38374    99.150755    3.9346623    70192.229    84.331873 
16039000     300.5185   -275965.59            0   -274436.45    -1718.556    95.879572    102.38374    99.150755    2.9934927    70199.386     77.30436 
16040000    301.30584   -275981.62            0   -274448.48   -1618.5622    95.879572    102.38374    99.150755    2.8313931    70206.198    70.276474 
16041000    301.12465   -275964.71            0   -274432.49   -1667.9656    95.879572    102.38374    99.150755    3.0066797    70213.377    63.248963 
16042000    300.57457   -275968.64            0   -274439.22   -1563.1683    95.879572    102.38374    99.150755    3.0588041    70220.135    56.221085 
16043000    299.48967   -275980.99            0   -274457.09   -1419.9683    95.879572    102.38374    99.150755    3.1199523    70227.129    49.193426 
16044000    301.35261   -275972.85            0   -274439.47   -1587.3691    95.879572    102.38374    99.150755    3.2016781    70234.219    42.165831 
16045000     298.6624   -275983.57            0   -274463.87   -1583.9447    95.879572    102.38374    99.150755    2.8996114    70241.282     35.13821 
16046000    300.45908   -275967.91            0   -274439.08   -1699.7344    95.879572    102.38374    99.150755    3.2955153      70248.1    28.110484 
16047000    301.98871   -275975.92            0    -274439.3    -1802.934    95.879572    102.38374    99.150755    2.8876486    70255.236    21.082896 
16048000    300.35636   -275982.14            0   -274453.83   -1587.0513    95.879572    102.38374    99.150755    3.0584987    70262.042    14.055219 
16049000    302.43938   -275975.82            0   -274436.91   -1721.1855    95.879572    102.38374    99.150755    3.8640559    70269.204    7.0276232 
16050000    301.09845   -275984.48            0   -274452.39   -1609.2487    95.879572    102.38374    99.150755    3.2619745    70276.315            0 
Loop time of 70276.3 on 160 procs for 10000000 steps with 39366 atoms

Performance: 12.294 ns/day, 1.952 hours/ns, 142.295 timesteps/s
99.0% CPU use with 160 MPI tasks x 1 OpenMP threads

MPI task timing breakdown:
Section |  min time  |  avg time  |  max time  |%varavg| %total
---------------------------------------------------------------
Pair    | 14156      | 15789      | 18479      | 714.6 | 22.47
Kspace  | 42099      | 45007      | 46579      | 411.5 | 64.04
Neigh   | 445.2      | 490.59     | 567.23     | 122.1 |  0.70
Comm    | 7093       | 7563.3     | 8071       | 201.1 | 10.76
Output  | 70.713     | 70.745     | 70.752     |   0.0 |  0.10
Modify  | 974.05     | 1180.6     | 1442       | 329.1 |  1.68
Other   |            | 174.8      |            |       |  0.25

Nlocal:    246.037 ave 262 max 230 min
Histogram: 6 5 20 13 29 40 18 17 7 5
Nghost:    3858.93 ave 3914 max 3807 min
Histogram: 1 9 21 27 25 40 15 10 9 3
Neighs:    57062.5 ave 61493 max 52740 min
Histogram: 8 8 16 17 32 23 29 14 9 4

Total # of neighbors = 9130000
Ave neighs/atom = 231.926
Neighbor list builds = 232624
Dangerous builds = 0

# Final Commands
variable        final_energy equal etotal
print           "final_energy: ${'final_energy'}"
ERROR on proc 0: Substitution for illegal variable 'final_energy' (../input.cpp:553)
Last command: final_energy: ${'final_energy'
