LAMMPS (7 Aug 2019)
  using 1 OpenMP thread(s) per MPI task

# Input written to comply with LAMMPS 2017-08-11 00:00:00

# Atomic Configuration
units           metal
boundary        p p p
box             tilt large
atom_style      charge
read_data       triclinic_8x8x8.lmp
  orthogonal box = (0 0 0) to (83.2296 83.2296 83.2296)
  4 by 5 by 8 MPI processor grid
  reading atoms ...
  27648 atoms
  read_data CPU = 0.043946 secs
group           lithium type 1
8704 atoms in group lithium
group           scandium type 2
2560 atoms in group scandium
group           chloride type 3
16384 atoms in group chloride
variable        T1 equal 300
variable        dt equal 0.001

# Potential Setup
pair_style      buck/coul/long 12.0
pair_coeff      * * 0.0 1.0 0.0
pair_coeff      1 1    360.530000  0.161000   0.000000 # Li Li
pair_coeff      1 3    421.040000  0.344000   0.000000 # Li Cl
pair_coeff      3 3   1227.200000  0.321000  14.530000 # Cl Cl
pair_coeff      2 3  12131.350000  0.250700   0.000000 # Sc Cl

kspace_style    pppm 1e-05

# General Setup
timestep        ${dt}
timestep        0.001

# Thermodynamic Information Output
thermo_style    custom step temp epair emol etotal press lx ly lz fmax cpu cpuremain
thermo          1000

# Intial Atom Velocity
velocity        all create ${T1} 798383 dist gaussian rot yes
velocity        all create 300 798383 dist gaussian rot yes

# Stage 0: npt_equilibriation
restart         0
fix             int all npt aniso 1.0 1.0 $(1000*dt) temp ${T1} ${T1} $(100*dt)
fix             int all npt aniso 1.0 1.0 1 temp ${T1} ${T1} $(100*dt)
fix             int all npt aniso 1.0 1.0 1 temp 300 ${T1} $(100*dt)
fix             int all npt aniso 1.0 1.0 1 temp 300 300 $(100*dt)
fix             int all npt aniso 1.0 1.0 1 temp 300 300 0.10000000000000000555
run             50000
PPPM initialization ...
  using 12-bit tables for long-range coulomb (../kspace.cpp:323)
  G vector (1/distance) = 0.264753
  grid = 72 72 72
  stencil order = 5
  estimated absolute RMS force accuracy = 0.000184939
  estimated relative force accuracy = 1.28433e-05
  using double precision MKL FFT
  3d grid and FFT values/proc = 8400 2880
Neighbor list info ...
  update every 1 steps, delay 10 steps, check yes
  max neighbors/atom: 2000, page size: 100000
  master list distance cutoff = 14
  ghost atom cutoff = 14
  binsize = 7, bins = 12 12 12
  1 neighbor lists, perpetual/occasional/extra = 1 0 0
  (1) pair buck/coul/long, perpetual
      attributes: half, newton on
      pair build: half/bin/atomonly/newton
      stencil: half/bin/3d/newton
      bin: standard
Per MPI rank memory allocation (min/avg/max) = 3.936 | 4.018 | 4.376 Mbytes
Step Temp E_pair E_mol TotEng Press Lx Ly Lz Fmax CPU CPULeft 
       0          300   -168073.94            0   -167001.84   -7722.1143      83.2296      83.2296      83.2296    5.7883005            0            0 
    1000    314.32417   -192611.37            0   -191488.09   -696.10774    85.441715    89.665352    89.422299    2.6019785     5.415982    265.38317 
    2000    298.91829   -192999.77            0   -191931.54   -47.998684    84.948683    89.444421    89.291021    3.0688474    10.946689    262.72056 
    3000    299.21976   -193114.48            0   -192045.17    159.94001     85.12279    89.330332    89.064113    2.9097707    16.514062    258.72032 
    4000     302.5164   -193180.24            0   -192099.15    135.61623    85.246428    89.215364    88.877281    3.2007527     21.69146     249.4518 
    5000    298.46775   -193243.34            0   -192176.72   -101.38398    85.255742    89.114033    88.842735    2.7446774    26.852103    241.66893 
    6000    300.70388   -193265.03            0   -192190.42   -89.995158    85.220275    89.061769    88.862918    3.2991916    32.065162    235.14453 
    7000    300.50031   -193294.15            0   -192220.27   -124.11684    85.208444    88.901507     88.95211    2.8109842    37.234106    228.72379 
    8000    300.13581   -193320.15            0   -192247.57   -213.38623    85.218406    88.925762    88.894645    2.8419581    42.288608     222.0152 
    9000    300.67517   -193346.42            0   -192271.91    35.533541    85.013712    88.952531    88.871284    2.6374402    47.786352    217.69339 
   10000    298.31574   -193349.87            0   -192283.79   -173.15539    85.058272    88.906816    88.919007     3.093329    53.247874     212.9915 
   11000     301.1852   -193372.83            0    -192296.5    100.42789    85.112075    88.752606    88.863479    3.2084731    58.551316    207.59103 
   12000    299.67731   -193383.61            0   -192312.67   -376.18293     85.20252    88.749292    88.731176    2.7558184    63.747295    201.86644 
   13000    298.98337   -193393.58            0   -192325.12    208.53828    85.064364    88.796815    88.753495    2.7944938    68.783931    195.76965 
   14000    301.11314   -193410.54            0   -192334.46   -34.484053    85.112198    88.669274     88.81024    3.5412081    73.974443       190.22 
   15000    298.89856   -193419.64            0   -192351.48   -86.579512    85.127509    88.671422    88.752179    2.8950468    79.148951    184.68089 
   16000    298.58291   -193426.44            0   -192359.41    150.47494    85.119341    88.744406    88.635125    3.0408387    84.326667    179.19417 
   17000    297.44218   -193433.38            0   -192370.42     -31.7303    85.175863    88.787861    88.679448    2.9382021    89.889235    174.49087 
   18000    297.89831   -193440.08            0   -192375.49   -104.39123    85.108919    88.784522    88.632155    3.2610225    95.261729    169.35418 
   19000    299.86509   -193452.68            0   -192381.06     193.6832    85.080354    88.802998    88.538435    3.5809057    100.36952     163.7608 
   20000    300.73354    -193449.8            0   -192375.09   -37.860696    85.243514    88.702113    88.516293    3.1712617    105.53029    158.29544 
   21000    299.77876   -193464.53            0   -192393.22    170.19841    85.116475    88.701174    88.576537    3.0884597    110.66037     152.8167 
   22000    300.16547   -193454.61            0   -192381.92   -451.59202    85.210622    88.628452    88.603376    3.0270931    115.74319    147.30952 
   23000    300.64122   -193471.77            0   -192397.38   -64.078534     85.14698    88.705461    88.624754     2.978642     120.8474    141.86435 
   24000    300.24568   -193477.27            0    -192404.3   -202.78771    85.178462    88.676361    88.619225    3.7242424    126.15356    136.66636 
   25000    302.63333    -193476.1            0    -192394.6     55.51005    85.113043    88.707954     88.46817    2.8886313    131.68075    131.68075 
   26000    298.85501   -193487.95            0   -192419.95    114.54986    85.118142    88.699608    88.483124    2.9326959    136.98578    126.44842 
   27000    299.96729   -193483.09            0   -192411.11    41.609501    85.130455    88.684475    88.438012    2.9677334    142.11982    121.06503 
   28000    298.73979   -193493.29            0    -192425.7   -32.832492    85.185227    88.583609    88.468176    3.4288747    147.30163    115.73699 
   29000    299.94593   -193492.33            0   -192420.43   0.76506776    85.113603    88.659899    88.493917    3.0898611    152.35094    110.32309 
   30000    299.76181      -193498            0   -192426.76   -353.20465    85.105341    88.738048     88.48984      3.16347    157.39384    104.92922 
   31000    298.13035   -193499.29            0   -192433.87    386.89317    85.022434    88.652856    88.392168    3.3503885    162.48105    99.585159 
   32000    299.85571   -193493.89            0   -192422.31   -238.78376    85.151268    88.671643    88.483131    3.1596862     167.9971    94.498369 
   33000    300.68695   -193515.03            0   -192440.48    220.42131    85.147668    88.527903    88.362134    2.9040386    173.40364    89.329149 
   34000    296.94984   -193503.36            0   -192442.16   -123.04226    84.994112    88.741468    88.374211      2.81837    178.72955    84.108023 
   35000    299.04028   -193510.77            0    -192442.1     57.55292    85.121196    88.667892    88.353319    2.8642356    183.78079    78.763197 
   36000    300.15959   -193510.61            0   -192437.94    158.01236    85.083999     88.61966    88.418366    3.3130665    188.93366    73.474201 
   37000     299.7338   -193517.78            0   -192446.64   -77.227448    85.147886    88.590495    88.339911    3.2006871     193.9984    68.161599 
   38000    298.47606    -193519.7            0   -192453.05    190.51352    85.016308    88.602359    88.409431    2.9961705    199.01045    62.845406 
   39000    300.17537   -193513.95            0   -192441.22   -127.79825     85.13328    88.646398    88.348655      2.82549    204.18562    57.590815 
   40000    298.27153   -193531.04            0   -192465.12   -121.88537     85.08601    88.559702    88.391042    3.3703558    209.77815    52.444537 
   41000    301.83506   -193517.83            0   -192439.18   -222.81619    85.200416     88.50243     88.37301    3.0652883    215.14167    47.226221 
   42000    300.02862   -193524.52            0   -192452.32   -124.51552     85.14168     88.71376    88.236986    3.3512921    220.37743    41.976654 
   43000    299.93056   -193529.53            0   -192457.68    118.83366    85.118157    88.544811     88.32889    3.1087054     225.4465    36.700593 
   44000    299.57449   -193530.97            0   -192460.39   -44.571309    85.142057     88.53732    88.353013    3.4352688    230.59947    31.445383 
   45000    301.57644   -193531.03            0    -192453.3    87.191251    85.137918    88.561126    88.283715    2.7946871    235.71726    26.190807 
   46000    299.15402   -193527.27            0    -192458.2    61.006721     85.29255    88.457547    88.302236    2.9509191    240.77265    20.936752 
   47000    298.91791   -193525.59            0   -192457.36    151.37225    85.209991    88.482594    88.392746    2.9540099    246.07311    15.706794 
   48000    299.12852   -193537.31            0   -192468.33    -86.77489    85.229768    88.493371    88.251697    3.0283922    251.56508    10.481878 
   49000    300.72473   -193543.46            0   -192468.78   -166.49646    85.249229    88.530688    88.364334    3.1016814    256.85839    5.2420079 
   50000    299.92395   -193542.79            0   -192470.96    126.15466    85.208246    88.396235    88.368026    3.2678154    261.99185            0 
Loop time of 261.992 on 160 procs for 50000 steps with 27648 atoms

Performance: 16.489 ns/day, 1.456 hours/ns, 190.846 timesteps/s
98.8% CPU use with 160 MPI tasks x 1 OpenMP threads

MPI task timing breakdown:
Section |  min time  |  avg time  |  max time  |%varavg| %total
---------------------------------------------------------------
Pair    | 46.864     | 55.008     | 66.041     |  53.3 | 21.00
Kspace  | 136.13     | 147.27     | 155.59     |  33.1 | 56.21
Neigh   | 0.97868    | 1.1127     | 1.2238     |   4.9 |  0.42
Comm    | 29.216     | 30.368     | 31.249     |   8.0 | 11.59
Output  | 0.003521   | 0.0035721  | 0.0045905  |   0.1 |  0.00
Modify  | 18.679     | 21.139     | 25.077     |  38.5 |  8.07
Other   |            | 7.092      |            |       |  2.71

Nlocal:    172.8 ave 185 max 157 min
Histogram: 2 4 10 22 15 30 39 21 9 8
Nghost:    3447.75 ave 3507 max 3380 min
Histogram: 3 8 7 22 27 35 23 21 9 5
Neighs:    41194.5 ave 47754 max 34603 min
Histogram: 2 8 23 24 28 16 21 21 12 5

Total # of neighbors = 6591118
Ave neighs/atom = 238.394
Neighbor list builds = 1186
Dangerous builds = 7

# Stage 1: nvt_equilibriation
unfix           int
restart         0
fix             int all nvt temp ${T1} ${T1} $(100*dt)
fix             int all nvt temp 300 ${T1} $(100*dt)
fix             int all nvt temp 300 300 $(100*dt)
fix             int all nvt temp 300 300 0.10000000000000000555
run             6000000
PPPM initialization ...
  using 12-bit tables for long-range coulomb (../kspace.cpp:323)
  G vector (1/distance) = 0.264247
  grid = 75 75 75
  stencil order = 5
  estimated absolute RMS force accuracy = 0.000178566
  estimated relative force accuracy = 1.24007e-05
  using double precision MKL FFT
  3d grid and FFT values/proc = 9152 3000
Per MPI rank memory allocation (min/avg/max) = 3.986 | 4.124 | 4.445 Mbytes
Step Temp E_pair E_mol TotEng Press Lx Ly Lz Fmax CPU CPULeft 
   50000    299.92395   -193542.77            0   -192470.95    126.39104    85.208246    88.396235    88.368026    3.2679094            0            0 
   51000    302.23654   -193541.67            0   -192461.58    63.325516    85.208246    88.396235    88.368026    3.0915399    4.5618598    27366.597 
   52000    299.71819   -193538.63            0   -192467.54     121.8424    85.208246    88.396235    88.368026    3.1737072    9.1317198    27386.031 
   53000    296.52565   -193541.98            0    -192482.3     139.5014    85.208246    88.396235    88.368026    2.9631046    13.611304    27208.999 
   54000    298.28379   -193537.33            0   -192471.37    27.492926    85.208246    88.396235    88.368026    2.9118862    18.086706    27111.974 
   55000    297.90757   -193553.92            0    -192489.3    110.19672    85.208246    88.396235    88.368026     3.362597      22.6853    27199.676 
   56000    299.12886   -193546.14            0   -192477.16   -7.6094639    85.208246    88.396235    88.368026     3.589551    27.809552    27781.745 
   57000    299.53292   -193551.53            0    -192481.1   -229.00702    85.208246    88.396235    88.368026    2.8052281    32.584263    27896.785 
   58000    303.56762    -193553.7            0   -192468.85   -38.163855    85.208246    88.396235    88.368026    2.9027041    37.229011    27884.529 
   59000    300.76289   -193558.65            0   -192483.83   -148.39041    85.208246    88.396235    88.368026    2.6458417    41.788362     27817.12 
   60000    300.17926   -193559.01            0   -192486.27   -55.625731    85.208246    88.396235    88.368026    2.6256411    46.324372    27748.299 
   61000     299.0677   -193558.39            0   -192489.62   -16.680165    85.208246    88.396235    88.368026    3.1051226    50.887224    27705.781 
   62000    301.60134    -193560.5            0   -192482.69    34.924748    85.208246    88.396235    88.368026    2.9281248    55.356319    27622.803 
   63000    299.78896   -193559.54            0   -192488.19    16.748795    85.208246    88.396235    88.368026    3.2514204    59.789798    27535.502 
   64000    297.26486   -193559.12            0   -192496.79    5.4896831    85.208246    88.396235    88.368026    2.6874349    64.625347    27631.952 
   65000    301.37934   -193552.96            0   -192475.93    18.736524    85.208246    88.396235    88.368026    3.0001547    69.692974    27807.497 
   66000    302.67535   -193560.71            0   -192479.05   -162.04614    85.208246    88.396235    88.368026    3.2602667     74.48417     27857.08 
   67000    298.91788   -193563.68            0   -192495.45   -93.459104    85.208246    88.396235    88.368026    3.1317967    79.041007    27817.785 
   68000    303.42122   -193568.51            0   -192484.19    11.538407    85.208246    88.396235    88.368026    3.0380344     83.53924    27762.874 
   69000    299.44496   -193563.08            0   -192492.97   -43.630162    85.208246    88.396235    88.368026     2.687537    88.066015    27722.255 
   70000    298.97572   -193574.54            0   -192506.11    14.626923    85.208246    88.396235    88.368026    2.9109112     92.49159    27654.986 
   71000    299.55159   -193570.95            0   -192500.46   -257.58733    85.208246    88.396235    88.368026    2.8377183    96.991942    27614.992 
   72000    300.20454   -193567.47            0   -192494.64   -107.32034    85.208246    88.396235    88.368026    3.2443826    101.56416    27597.753 
   73000    297.99824   -193563.63            0   -192498.68   -129.57164    85.208246    88.396235    88.368026    2.7382779    106.61279     27705.42 
   74000    301.65798   -193584.66            0   -192506.64   -324.17458    85.208246    88.396235    88.368026    3.5854492    111.51517    27767.277 
   75000    301.95585   -193568.38            0   -192489.29   -551.46647    85.208246    88.396235    88.368026    3.2386795    116.31971    27800.411 
   76000    300.03488   -193582.95            0   -192510.73   -138.43181    85.208246    88.396235    88.368026    2.8122069    120.72511    27738.916 
   77000    299.97345   -193575.74            0   -192503.74   -207.84958    85.208246    88.396235    88.368026    2.8186663    125.21448    27700.226 
   78000    300.65523   -193570.36            0   -192495.92   -336.50698    85.208246    88.396235    88.368026    2.7073007    129.65721    27654.031 
   79000    299.86861   -193580.18            0   -192508.55   -141.63174    85.208246    88.396235    88.368026    2.9223201    134.18607    27628.449 
   80000    299.30366   -193577.84            0   -192508.23   -551.49102    85.208246    88.396235    88.368026    3.2468512    138.64346    27590.048 
   81000    298.90494   -193584.45            0   -192516.26    50.142196    85.208246    88.396235    88.368026     2.802579    143.25138    27582.823 
   82000     299.2645   -193581.62            0   -192512.15    14.178842    85.208246    88.396235    88.368026    2.8892162    148.40254    27677.074 
   83000    301.14345   -193576.02            0   -192499.83   -162.26796    85.208246    88.396235    88.368026    3.5639414    153.40877    27739.096 
   84000    297.69942   -193585.39            0   -192521.51   -534.94979    85.208246    88.396235    88.368026    2.9428312    158.02117    27728.068 
   85000    299.53744    -193580.8            0   -192510.35   -319.13039    85.208246    88.396235    88.368026    3.4148847    162.54878    27702.957 
   86000    299.15878   -193583.05            0   -192513.96   -511.59995    85.208246    88.396235    88.368026    3.1383373    167.02492    27670.463 
   87000    300.24633   -193582.79            0   -192509.81   -268.50351    85.208246    88.396235    88.368026    3.1233576    171.49026    27637.742 
   88000    298.71528   -193583.87            0   -192516.36   -331.51128    85.208246    88.396235    88.368026     3.022482    176.01143    27615.268 
   89000    301.54705   -193582.36            0   -192504.74   -122.67603    85.208246    88.396235    88.368026    2.9653758    180.43447    27578.715 
   90000    300.50234   -193584.75            0   -192510.86   -363.94159    85.208246    88.396235    88.368026    3.0153331    185.40567    27625.445 
   91000    297.89213   -193582.96            0    -192518.4   -411.30831    85.208246    88.396235    88.368026     2.876549    190.32177    27661.645 
   92000    300.91101   -193594.06            0   -192518.71   -158.88336    85.208246    88.396235    88.368026     3.243332    195.08514    27674.221 
   93000    300.99047   -193582.72            0   -192507.09   -123.28383    85.208246    88.396235    88.368026    3.3450586    199.65173     27658.73 
   94000    299.13814   -193589.32            0    -192520.3   -294.73033    85.208246    88.396235    88.368026    3.2627773    204.18779    27639.602 
   95000    300.66192   -193587.68            0   -192513.22   -133.66501    85.208246    88.396235    88.368026    3.3764859    208.71152    27619.492 
   96000    299.71331   -193590.39            0   -192519.32   -67.959572    85.208246    88.396235    88.368026     2.763556    213.30224    27608.729 
   97000    300.28294   -193584.52            0   -192511.42   -529.80848    85.208246    88.396235    88.368026    3.1747477    217.83133    27590.424 
   98000      299.732    -193596.7            0   -192525.56   -153.77351    85.208246    88.396235    88.368026    2.8612427    222.56101    27597.565 
   99000    302.74712   -193590.36            0   -192508.45   -320.99331    85.208246    88.396235    88.368026    3.1537712    227.74286    27659.138 
  100000    301.76883   -193596.27            0   -192517.85   -315.75732    85.208246    88.396235    88.368026    3.6604282     232.5088    27668.548 
  101000     302.5778   -193596.13            0   -192514.82   -216.13295    85.208246    88.396235    88.368026    3.2915224    237.29156    27679.363 
  102000    300.70772   -193597.28            0   -192522.66   -430.27233    85.208246    88.396235    88.368026    3.2347993    241.78948    27656.997 
  103000    300.88883   -193589.54            0   -192514.27   -155.37725    85.208246    88.396235    88.368026     3.023457    246.29601    27636.271 
  104000    301.04875   -193597.26            0   -192521.42   -462.53318    85.208246    88.396235    88.368026    2.6866254    250.73728    27608.961 
  105000    299.11247   -193603.05            0   -192534.12   -344.69929    85.208246    88.396235    88.368026    3.2404457    255.26396    27591.714 
  106000    300.02147   -193588.12            0   -192515.95   -284.83839    85.208246    88.396235    88.368026    2.8252413    259.79471    27575.353 
  107000    299.06938    -193601.3            0   -192532.53   -245.36407    85.208246    88.396235    88.368026    2.9208015    264.71028     27599.53 
  108000    301.22611   -193608.47            0   -192531.99   -305.66765    85.208246    88.396235    88.368026    3.1213679    269.72325    27632.682 
  109000    301.07777   -193599.86            0   -192523.91   -114.29264    85.208246    88.396235    88.368026    2.8370201    274.62614    27653.456 
  110000    299.65687   -193596.81            0   -192525.94   -119.48895    85.208246    88.396235    88.368026    2.7211214    279.05054    27626.004 
  111000    299.11495   -193602.97            0   -192534.04   -348.50632    85.208246    88.396235    88.368026    3.4671445    283.53037    27604.703 
  112000    300.05329   -193593.31            0   -192521.02   -384.24886    85.208246    88.396235    88.368026     3.273611    288.01627    27584.526 
  113000    300.65483   -193604.83            0   -192530.39   -522.84449    85.208246    88.396235    88.368026    3.3177899    292.51401    27565.963 
  114000    303.13251   -193597.52            0   -192514.23   -258.06574    85.208246    88.396235    88.368026    2.9324053    297.00376    27547.099 
  115000    299.13473   -193608.23            0   -192539.23   -231.42381    85.208246    88.396235    88.368026    2.7652719    301.60072    27538.466 
  116000    299.62738   -193604.18            0   -192533.41    -299.5342    85.208246    88.396235    88.368026    2.7829313    306.69165    27574.368 
  117000    299.78691   -193618.86            0   -192547.52   -431.10113    85.208246    88.396235    88.368026    2.6267064    311.46969    27581.339 
  118000    299.32243   -193600.24            0   -192530.56   -187.58418    85.208246    88.396235    88.368026     3.283779    316.23877    27587.182 
  119000    299.77534   -193611.99            0   -192540.69   -165.40436    85.208246    88.396235    88.368026    3.0274632    320.70039    27566.291 
  120000    300.20281   -193600.95            0   -192528.13   -353.32359    85.208246    88.396235    88.368026    3.0751094    325.20614    27549.606 
  121000    301.15963   -193623.07            0   -192546.83    29.464639    85.208246    88.396235    88.368026    2.8285502    329.80028    27540.646 
  122000    300.91586   -193598.69            0   -192523.32   -291.69837    85.208246    88.396235    88.368026    2.7601335    334.36209    27529.145 
  123000    298.23396   -193609.92            0   -192544.14   -457.52935    85.208246    88.396235    88.368026    2.8499083    338.84517    27511.443 
  124000    301.50173   -193610.38            0   -192532.91   -183.53283    85.208246    88.396235    88.368026    3.1671069    343.63788    27518.893 
  125000    297.13398   -193593.91            0   -192532.06   -361.52421    85.208246    88.396235    88.368026    2.8984581    348.71141    27548.201 
  126000    299.59962   -193607.89            0   -192537.22   -453.16531    85.208246    88.396235    88.368026    2.8062794    353.38598    27545.508 
  127000    300.57493   -193604.34            0   -192530.19   -572.95228    85.208246    88.396235    88.368026    2.6386038      357.981    27536.643 
  128000    298.68487   -193620.97            0   -192553.57   -500.09036    85.208246    88.396235    88.368026    2.9191572    362.54006    27525.157 
  129000    300.78642   -193607.56            0   -192532.65    -310.2003    85.208246    88.396235    88.368026    2.9496399    367.14072    27516.965 
  130000    299.72609    -193615.3            0   -192544.18   -398.08133    85.208246    88.396235    88.368026    2.9910933    371.54595      27494.4 
  131000    299.67552   -193603.59            0   -192532.65   -541.78928    85.208246    88.396235    88.368026    2.8673474    376.05891    27480.157 
  132000    299.70437   -193606.76            0   -192535.72   -649.13528    85.208246    88.396235    88.368026    2.8707668    380.53349    27463.381 
  133000    301.76142   -193611.89            0    -192533.5   -731.96706    85.208246    88.396235    88.368026    3.2311675    385.53376    27484.377 
  134000    299.66422   -193612.25            0   -192541.35    -371.4399    85.208246    88.396235    88.368026    3.0745302     390.4656    27499.934 
  135000    299.02226   -193619.61            0   -192551.01   -521.62495    85.208246    88.396235    88.368026    3.7722924    395.20751    27501.793 
  136000    298.00578   -193624.95            0   -192559.98   -306.58146    85.208246    88.396235    88.368026    3.1215215    399.66799    27484.146 
  137000    298.15815   -193611.49            0   -192545.98   -440.08721    85.208246    88.396235    88.368026     2.834071    404.25239    27475.223 
  138000    299.86499    -193615.9            0   -192544.28   -499.73887    85.208246    88.396235    88.368026     3.023627    408.81181    27464.721 
  139000    299.42706   -193610.25            0    -192540.2   -248.40283    85.208246    88.396235    88.368026    2.9312981    413.31886    27450.874 
  140000    299.43214   -193613.93            0   -192543.87   -518.15557    85.208246    88.396235    88.368026    3.1498751    417.84781    27438.673 
  141000     299.1722   -193616.61            0   -192547.47   -502.70504    85.208246    88.396235    88.368026    3.0628001    422.41445    27429.088 
  142000    300.51802   -193604.98            0   -192531.03   -401.23476    85.208246    88.396235    88.368026    2.6296819    427.50457    27453.228 
  143000    300.69216   -193612.65            0   -192538.08   -553.56238    85.208246    88.396235    88.368026    3.1095383    432.32466    27459.589 
  144000    302.93964    -193616.2            0    -192533.6   -182.17385    85.208246    88.396235    88.368026    3.4252202     437.0039    27456.862 
  145000       299.87   -193621.72            0   -192550.09    -455.9557    85.208246    88.396235    88.368026    3.5325615    441.52767    27444.431 
  146000    299.23601   -193610.66            0   -192541.29   -495.52936    85.208246    88.396235    88.368026    3.0052453    446.09757    27435.001 
  147000    298.16303   -193617.31            0   -192551.78   -478.59421    85.208246    88.396235    88.368026    3.2071024    450.67122    27425.899 
  148000    299.66559   -193616.47            0   -192545.57   -431.90207    85.208246    88.396235    88.368026    3.6188581     455.2324    27416.139 
  149000    298.45656   -193620.76            0   -192554.18   -367.36028    85.208246    88.396235    88.368026    2.6638723    459.68897    27400.248 
  150000    300.29592   -193624.39            0   -192551.24   -495.08098    85.208246    88.396235    88.368026      2.78707      464.542    27407.978 
  151000    300.74722    -193626.2            0   -192551.44   -683.90378    85.208246    88.396235    88.368026    3.0685163    469.58339     27426.46 
  152000    299.74135    -193625.1            0   -192553.93   -635.06164    85.208246    88.396235    88.368026    3.1079573    474.30276     27425.86 
  153000    299.94061   -193624.28            0    -192552.4   -549.25697    85.208246    88.396235    88.368026    3.1773638    478.85085    27415.373 
  154000    299.59149   -193627.07            0   -192556.43   -538.45836    85.208246    88.396235    88.368026    3.2311726    483.32634    27400.886 
  155000      300.123   -193626.25            0   -192553.71    -390.3326    85.208246    88.396235    88.368026    3.4096956    487.91188    27392.767 
  156000    300.52498   -193622.12            0   -192548.15   -617.85645    85.208246    88.396235    88.368026    3.3685823    492.53766    27386.953 
  157000    298.80346   -193621.87            0   -192554.05   -370.96053    85.208246    88.396235    88.368026    2.8301296    497.01308     27372.88 
  158000    298.50956   -193626.56            0   -192559.79   -338.74425    85.208246    88.396235    88.368026    3.7898922    501.42738    27355.649 
  159000    300.47533      -193619            0   -192545.21   -443.25357    85.208246    88.396235    88.368026    3.7862607    506.45153    27371.614 
  160000     303.8824   -193623.55            0   -192537.57   -388.47535    85.208246    88.396235    88.368026    3.0815115    511.29051    27377.283 
  161000    299.57559   -193626.11            0   -192555.53   -308.70631    85.208246    88.396235    88.368026       2.9845    515.95777    27373.652 
  162000    297.59133   -193624.06            0   -192560.57    -426.6994    85.208246    88.396235    88.368026    3.2950455    520.53887    27365.472 
  163000    299.40797   -193620.04            0   -192550.06   -573.20367    85.208246    88.396235    88.368026    3.5008779    525.05301    27353.868 
  164000    298.61321    -193640.1            0   -192572.96   -679.41396    85.208246    88.396235    88.368026    2.8361287    529.52823    27340.379 
  165000      303.045    -193634.7            0   -192551.72   -273.05111    85.208246    88.396235    88.368026    3.1019221    534.02656    27328.229 
  166000    299.83329   -193629.88            0   -192558.38   -469.42421    85.208246    88.396235    88.368026    3.4742069    538.49104    27314.494 
  167000    297.84466   -193636.21            0   -192571.81   -527.40131    85.208246    88.396235    88.368026    3.0851312    543.08296    27307.326 
  168000    301.52187   -193631.97            0   -192554.44   -478.82045    85.208246    88.396235    88.368026    2.9860958    548.27106    27329.918 
  169000    301.19137   -193634.79            0   -192558.43   -451.62697    85.208246    88.396235    88.368026    3.4152228    552.99978    27329.342 
  170000    302.29533   -193635.01            0   -192554.71   -381.99082    85.208246    88.396235    88.368026    2.7989298    557.66492    27325.581 
  171000    299.45302    -193628.5            0   -192558.36   -300.34015    85.208246    88.396235    88.368026    3.0254543    562.13573    27312.363 
  172000    302.27132   -193630.77            0   -192550.56   -565.90977    85.208246    88.396235    88.368026    3.8424904     566.6528    27301.518 
  173000    297.61911   -193633.63            0   -192570.04   -351.25034    85.208246    88.396235    88.368026    3.2863754    571.06754    27285.886 
  174000    300.42719   -193636.13            0    -192562.5   -519.69438    85.208246    88.396235    88.368026    2.8977406    575.56807      27274.5 
  175000     297.5625   -193631.76            0   -192568.37   -569.41699    85.208246    88.396235    88.368026     2.971247     580.0654    27263.074 
  176000    298.81103   -193642.93            0   -192575.09   -503.60443    85.208246    88.396235    88.368026    2.9937928    584.98717    27271.545 
  177000    300.63808   -193629.96            0   -192555.59    -598.7297    85.208246    88.396235    88.368026    3.1293606    589.89274    27279.056 
  178000    302.36707   -193633.48            0   -192552.92   -399.37953    85.208246    88.396235    88.368026    2.9936077    594.61798      27278.1 
  179000    299.99254   -193637.02            0   -192564.95   -432.25856    85.208246    88.396235    88.368026    2.9686234    599.14784    27268.193 
  180000    298.46091   -193633.09            0    -192566.5   -604.55499    85.208246    88.396235    88.368026    2.9333042    603.62837    27256.143 
  181000    300.45945   -193626.29            0   -192552.55   -515.36178    85.208246    88.396235    88.368026    3.4071146    608.11556    27244.505 
  182000    299.40982   -193645.42            0   -192575.43   -591.65608    85.208246    88.396235    88.368026    3.2016536    612.60476    27233.066 
  183000    300.18284   -193632.24            0   -192559.49   -456.99476    85.208246    88.396235    88.368026    3.0530855    617.15493    27224.421 
  184000    300.31547   -193641.35            0   -192568.13    -580.1589    85.208246    88.396235    88.368026    3.0433379    621.69297    27215.306 
  185000    299.59809   -193638.21            0   -192567.55   -513.00667    85.208246    88.396235    88.368026    2.7596085    626.82093    27231.887 
  186000    301.70317   -193642.01            0   -192563.83   -857.86343    85.208246    88.396235    88.368026    2.8477673    631.63292    27234.525 
  187000     299.9194   -193635.61            0    -192563.8   -618.74912    85.208246    88.396235    88.368026    2.9925863     636.2858    27230.245 
  188000    298.25482   -193632.24            0   -192566.38   -513.71713    85.208246    88.396235    88.368026    3.4098874    640.70361    27215.975 
  189000    299.94462   -193637.26            0   -192565.36   -587.64395    85.208246    88.396235    88.368026    2.6845637    645.14638    27202.899 
  190000     301.0267   -193644.83            0   -192569.06   -376.86203    85.208246    88.396235    88.368026    2.8402726    649.55369    27188.462 
  191000    299.71084   -193635.37            0   -192564.31   -622.34356    85.208246    88.396235    88.368026    3.0044441    654.07945    27179.089 
  192000    300.42389   -193651.43            0   -192577.82   -454.97205    85.208246    88.396235    88.368026    3.0603796    658.53084    27166.716 
  193000    301.97796   -193634.07            0    -192554.9   -784.86857    85.208246    88.396235    88.368026    2.9782893     663.1482    27161.252 
  194000    298.46447   -193639.41            0    -192572.8   -1001.5218    85.208246    88.396235    88.368026    3.1324347    668.25702    27175.785 
  195000    297.22186   -193635.81            0   -192573.64   -690.73429    85.208246    88.396235    88.368026     2.803245    673.05367    27177.443 
  196000    303.24018   -193640.08            0    -192556.4   -512.96082    85.208246    88.396235    88.368026    3.2311611    677.75073    27175.019 
  197000    299.82076   -193637.14            0   -192565.68     -449.049    85.208246    88.396235    88.368026    3.0699804    682.25788    27165.002 
  198000    297.42456   -193637.89            0   -192574.99   -548.27681    85.208246    88.396235    88.368026    3.2286121    686.70632    27152.739 
  199000    299.65795   -193626.39            0   -192555.52   -473.87631    85.208246    88.396235    88.368026    2.9777906    691.15796    27140.706 
  200000     299.1242   -193644.82            0   -192575.85   -654.68813    85.208246    88.396235    88.368026    2.8019123    695.69219    27131.995 
  201000    297.03877   -193633.85            0   -192572.33   -617.49237    85.208246    88.396235    88.368026    2.7359154    700.21801    27123.014 
  202000     300.9575   -193641.57            0   -192566.06   -783.62391    85.208246    88.396235    88.368026    2.9450808     705.1175    27128.468 
  203000    300.06806   -193643.48            0   -192571.14   -546.51079    85.208246    88.396235    88.368026    2.8365142    710.00371    27133.279 
  204000    299.85199    -193630.1            0   -192558.53   -814.53481    85.208246    88.396235    88.368026    3.3358046    714.74001    27132.273 
  205000    299.14607   -193647.79            0   -192578.74   -1035.5953    85.208246    88.396235    88.368026    2.6947461    719.24105    27122.348 
  206000    303.68345   -193642.16            0    -192556.9   -744.87001    85.208246    88.396235    88.368026    2.6454473    723.71545    27111.494 
  207000    298.84633   -193643.26            0   -192575.29   -844.28653    85.208246    88.396235    88.368026     2.820125    728.18818     27100.66 
  208000    301.00604    -193647.3            0    -192571.6   -620.08192    85.208246    88.396235    88.368026    2.9315959    732.69079     27091.01 
  209000    298.83552   -193640.34            0   -192572.41   -766.71969    85.208246    88.396235    88.368026    3.6444387    737.13252    27079.189 
  210000    302.47198   -193650.56            0   -192569.63   -787.04412    85.208246    88.396235    88.368026      2.91686    741.68361    27071.452 
  211000    297.99391   -193641.94            0   -192577.01   -749.32853    85.208246    88.396235    88.368026    3.3873732    746.75962    27082.791 
  212000     299.5718   -193639.44            0   -192568.87   -631.65246    85.208246    88.396235    88.368026    2.7825129    751.50449    27081.995 
  213000    299.91575   -193642.62            0   -192570.82    -551.2029    85.208246    88.396235    88.368026    2.9985216    756.47801    27089.338 
  214000    300.37907   -193646.76            0   -192573.31   -490.34387    85.208246    88.396235    88.368026    3.0380241    760.89749    27076.815 
  215000     300.7477   -193651.96            0   -192577.19   -560.39752    85.208246    88.396235    88.368026     2.929211      765.422    27068.105 
  216000    298.57683   -193646.47            0   -192579.46   -759.39128    85.208246    88.396235    88.368026    2.8501405    769.89584    27057.665 
  217000    300.18158   -193656.88            0   -192584.14   -665.02452    85.208246    88.396235    88.368026    2.7469596    774.43854    27049.701 
  218000     299.2596   -193654.55            0    -192585.1   -724.35558    85.208246    88.396235    88.368026    2.9941196    778.89591    27038.815 
  219000     300.3305   -193639.43            0   -192566.16   -486.84207    85.208246    88.396235    88.368026    3.3010463    783.49468    27032.884 
  220000    300.78108   -193652.66            0   -192577.77   -434.20152    85.208246    88.396235    88.368026    3.1416407    788.58272    27043.749 
  221000    299.80419   -193649.98            0   -192578.59   -701.94842    85.208246    88.396235    88.368026    3.0499607     793.3226    27042.558 
  222000    301.72006   -193637.49            0   -192559.25   -813.37878    85.208246    88.396235    88.368026    3.3273527    797.99076    27038.896 
  223000    298.45184   -193652.66            0    -192586.1   -639.40208    85.208246    88.396235    88.368026    3.4372567    802.43792    27027.779 
  224000     300.1591   -193648.08            0   -192575.42   -660.92643    85.208246    88.396235    88.368026    3.0978494    806.89315    27017.009 
  225000    299.66514   -193648.14            0   -192577.24   -857.09132    85.208246    88.396235    88.368026    2.6156592    811.36622    27006.904 
  226000    299.83828   -193646.74            0   -192575.22   -740.31817    85.208246    88.396235    88.368026    2.8839588    815.91415    26999.341 
  227000    297.85526   -193657.89            0   -192593.46   -685.42172    85.208246    88.396235    88.368026    3.0050073    820.38692    26989.339 
  228000     301.9022   -193652.05            0   -192573.16   -930.27096    85.208246    88.396235    88.368026    2.8727928     825.1716    26989.601 
  229000    300.25762   -193649.59            0   -192576.57   -558.47242    85.208246    88.396235    88.368026     3.258231     830.1364    26995.665 
  230000    300.88099   -193656.38            0   -192581.13   -666.29235    85.208246    88.396235    88.368026    2.9159322     834.8717    26994.185 
  231000    303.73178    -193657.2            0   -192571.77   -811.42298    85.208246    88.396235    88.368026    3.6267483    839.32952    26983.749 
  232000    300.54838   -193651.93            0   -192577.87   -827.36756    85.208246    88.396235    88.368026    3.0518982     843.7536    26972.299 
  233000    297.78084   -193648.57            0   -192584.41   -769.85784    85.208246    88.396235    88.368026    2.7765439    848.20803    26961.891 
  234000    299.19366   -193650.41            0    -192581.2   -519.07874    85.208246    88.396235    88.368026    2.8963971    852.66849    26951.739 
  235000     300.8272   -193649.82            0   -192574.77   -599.29246    85.208246    88.396235    88.368026    3.1216457    857.12349    26941.476 
  236000    300.29054   -193661.23            0    -192588.1   -905.04155    85.208246    88.396235    88.368026    3.0164861    861.65224    26933.581 
  237000    299.04868   -193654.63            0   -192585.93   -904.49704    85.208246    88.396235    88.368026    3.1075946    866.65168    26940.354 
  238000    301.63116   -193649.71            0   -192571.79   -709.91518    85.208246    88.396235    88.368026    3.2156264    871.48891    26941.987 
  239000    302.15348    -193666.3            0   -192586.51   -760.32805    85.208246    88.396235    88.368026    3.1806474    876.18876    26939.328 
  240000    302.19219   -193654.07            0   -192574.14   -695.19464    85.208246    88.396235    88.368026    2.8621824     880.6452    26929.203 
  241000    301.73533   -193647.54            0   -192569.24   -733.10814    85.208246    88.396235    88.368026    2.8634069    885.10145    26919.133 
  242000    299.40209   -193657.92            0   -192587.96   -683.91728    85.208246    88.396235    88.368026    3.2438875    889.54791    26908.824 
  243000    300.13944   -193664.65            0   -192592.06   -891.35497    85.208246    88.396235    88.368026    2.9094439    893.99835    26898.697 
  244000    300.82016   -193656.29            0   -192581.26   -547.15954    85.208246    88.396235    88.368026    3.3571338    898.47866    26889.521 
  245000    303.44469    -193661.9            0   -192577.49   -810.71518    85.208246    88.396235    88.368026    3.0225932    903.01816    26882.156 
  246000    296.05832   -193661.04            0   -192603.03   -909.90166    85.208246    88.396235    88.368026    2.8879066    908.09643    26890.774 
  247000    299.54278   -193654.28            0   -192583.82   -966.12222    85.208246    88.396235    88.368026    2.7441751    912.88959    26890.854 
  248000     298.3579    -193655.2            0   -192588.97   -834.49038    85.208246    88.396235    88.368026    3.1283661    917.53323    26886.504 
  249000    302.11041   -193655.85            0   -192576.22   -766.13596    85.208246    88.396235    88.368026    3.3267696    921.96332    26875.926 
  250000    300.06249    -193648.7            0   -192576.38   -673.83985    85.208246    88.396235    88.368026    3.1284315     926.4495    26867.036 
  251000    303.90774   -193663.17            0   -192577.11   -958.48184    85.208246    88.396235    88.368026    2.9159027    930.94664    26858.505 
  252000    300.84413   -193664.39            0   -192589.28   -871.51917    85.208246    88.396235    88.368026    3.1675535    935.34425    26847.158 
  253000    298.94861   -193650.72            0   -192582.39   -777.13534    85.208246    88.396235    88.368026    3.4000653    939.84415    26838.801 
  254000    301.90488   -193656.82            0   -192577.91   -869.15497    85.208246    88.396235    88.368026    2.8523138    944.57578    26837.065 
  255000    300.77233   -193661.23            0   -192586.37   -947.08721    85.208246    88.396235    88.368026    3.1822104    949.63119    26844.452 
  256000    298.89594   -193647.63            0   -192579.48   -924.53748    85.208246    88.396235    88.368026     3.188126    954.41968    26844.212 
  257000    302.54654   -193656.92            0   -192575.72   -783.06426    85.208246    88.396235    88.368026    3.0237905    958.94141    26836.462 
  258000    301.79814   -193659.39            0   -192580.86   -806.01585    85.208246    88.396235    88.368026    3.0519803    963.41648    26827.444 
  259000    302.03185   -193658.52            0   -192579.17   -933.40551    85.208246    88.396235    88.368026    2.9165729    967.82049      26816.5 
  260000    299.42902   -193662.53            0   -192592.47   -771.35189    85.208246    88.396235    88.368026    2.9259827    972.26707    26806.792 
  261000    297.68536   -193662.03            0   -192598.21   -803.70726    85.208246    88.396235    88.368026    3.4693929    976.79128    26799.264 
  262000    299.10471   -193657.72            0   -192588.83   -1124.0206    85.208246    88.396235    88.368026    2.9377876    981.27688     26790.71 
  263000     302.1675   -193658.06            0   -192578.22   -964.63592    85.208246    88.396235    88.368026    2.9959562    986.29834    26796.754 
  264000     300.4627   -193670.53            0   -192596.78   -964.61401    85.208246    88.396235    88.368026    2.8157981    991.16616    26798.539 
  265000    301.60521   -193649.35            0   -192571.51   -640.81546    85.208246    88.396235    88.368026    3.0037802    995.93494    26797.598 
  266000    300.77392   -193660.69            0   -192585.83   -829.57743    85.208246    88.396235    88.368026    3.6246116     1000.468     26790.31 
  267000    300.08056   -193671.64            0   -192599.25   -566.84479    85.208246    88.396235    88.368026     2.906262    1004.9169    26780.805 
  268000    297.32136   -193653.91            0   -192591.39   -717.98012    85.208246    88.396235    88.368026    2.8665118    1009.3664    26771.361 
  269000    298.33802   -193666.29            0   -192600.14   -756.12858    85.208246    88.396235    88.368026     2.717103    1013.8514      26762.9 
  270000    300.09412   -193657.79            0   -192585.36   -552.26069    85.208246    88.396235    88.368026    3.3205611    1018.2735    26752.822 
  271000    298.78963   -193664.03            0   -192596.26   -865.01373    85.208246    88.396235    88.368026    3.0809671     1022.807    26745.709 
  272000    302.58595   -193656.59            0   -192575.25   -669.66634    85.208246    88.396235    88.368026    2.9729059    1027.9299    26753.959 
  273000    301.59498   -193667.58            0   -192589.79   -736.96703    85.208246    88.396235    88.368026    2.9513527    1032.6528    26751.727 
  274000    299.92089   -193668.26            0   -192596.45   -935.53646    85.208246    88.396235    88.368026    3.0585327    1037.2992    26747.501 
  275000     301.1869   -193661.12            0   -192584.78   -586.51384    85.208246    88.396235    88.368026    3.4021975    1041.7617    26738.551 
  276000    300.03859   -193665.95            0   -192593.71   -663.88432    85.208246    88.396235    88.368026    3.9154455    1046.2502    26730.304 
  277000    301.98484   -193655.62            0   -192576.43   -709.11973    85.208246    88.396235    88.368026    2.7397359    1050.6824    26720.658 
  278000    302.40822   -193667.26            0   -192586.56   -831.88016    85.208246    88.396235    88.368026    2.7645527    1055.1962    26713.124 
  279000    298.00385   -193669.35            0   -192604.38    -819.8574    85.208246    88.396235    88.368026    2.9511406    1059.6202    26703.355 
  280000    301.42227   -193663.92            0   -192586.74   -836.60165    85.208246    88.396235    88.368026    2.9982569    1064.2674     26699.23 
  281000    298.45297   -193658.19            0   -192591.62    -605.0418    85.208246    88.396235    88.368026    2.5780903     1069.364    26706.324 
  282000    298.68297   -193659.93            0   -192592.54   -640.62003    85.208246    88.396235    88.368026    3.0845182    1074.0655    26703.492 
  283000    303.79265   -193669.64            0   -192583.99    -803.1517    85.208246    88.396235    88.368026    2.7238444    1078.5406    26695.036 
  284000    299.01578   -193663.55            0   -192594.97   -737.88675    85.208246    88.396235    88.368026    2.9638393    1083.0062    26686.384 
  285000     298.5468   -193666.14            0   -192599.24   -803.85606    85.208246    88.396235    88.368026    2.5785836    1087.4726    26677.784 
  286000    299.49466   -193662.03            0   -192591.74   -1035.3446    85.208246    88.396235    88.368026    3.0873517    1091.9475     26669.43 
  287000     301.3695   -193666.13            0   -192589.14   -997.38405    85.208246    88.396235    88.368026    3.3512486    1096.4698     26662.26 
  288000     300.0893   -193665.68            0   -192593.26   -972.82709    85.208246    88.396235    88.368026    3.2906921    1100.9687    26654.544 
  289000    299.49931   -193656.11            0    -192585.8   -801.48271    85.208246    88.396235    88.368026    3.8409756    1105.8268    26655.514 
  290000    299.29243   -193660.56            0   -192590.99   -784.86548    85.208246    88.396235    88.368026    3.1721486    1110.7624    26658.297 
  291000    299.75891   -193668.46            0   -192597.23   -886.52779    85.208246    88.396235    88.368026    2.7229481    1115.5737    26658.044 
  292000    301.59388   -193661.03            0   -192583.24   -1113.4046    85.208246    88.396235    88.368026    2.9189206    1120.0204     26649.08 
  293000    299.12014   -193664.52            0   -192595.57   -997.16309    85.208246    88.396235    88.368026    3.2867151    1124.4264    26639.188 
  294000    297.02389   -193663.12            0   -192601.66   -795.00736    85.208246    88.396235    88.368026    2.9788629    1128.9317    26631.684 
  295000    298.74047   -193654.46            0   -192586.86   -888.92604    85.208246    88.396235    88.368026    2.7286031    1133.4418    26624.318 
  296000      300.123   -193669.87            0   -192597.34   -920.10388    85.208246    88.396235    88.368026    3.5822363    1137.9119    26616.036 
  297000    300.56156    -193658.4            0    -192584.3   -902.89973    85.208246    88.396235    88.368026    3.1487851    1142.5202    26611.007 
  298000     300.7138   -193659.96            0   -192585.32   -909.97386    85.208246    88.396235    88.368026    3.0011937    1147.6832    26618.845 
  299000     296.6355   -193664.16            0   -192604.09   -760.25467    85.208246    88.396235    88.368026    3.1998013    1152.4103    26616.513 
  300000    303.06757   -193656.55            0   -192573.49   -865.45367    85.208246    88.396235    88.368026    3.3353734    1157.0614    26612.412 
  301000    297.95478    -193659.3            0   -192594.52   -967.59767    85.208246    88.396235    88.368026      2.95151    1161.5265    26604.048 
  302000    298.10047   -193664.89            0   -192599.58   -886.55996    85.208246    88.396235    88.368026    3.0877501    1165.9393    26594.521 
  303000    300.21744   -193665.25            0   -192592.38   -752.09496    85.208246    88.396235    88.368026    2.9867159    1170.3714    26585.472 
  304000    301.79369   -193675.48            0   -192596.97   -693.10072    85.208246    88.396235    88.368026    2.9608702    1174.7951     26576.27 
  305000    301.11474   -193670.78            0    -192594.7   -894.23982    85.208246    88.396235    88.368026    2.8548992    1179.1843    26566.328 
  306000    302.11676   -193670.68            0   -192591.02    -873.5226    85.208246    88.396235    88.368026    3.0560052    1183.8554    26562.755 
  307000    300.21885   -193664.44            0   -192591.56   -668.55039    85.208246    88.396235    88.368026    3.2330631    1189.0325    26570.481 
  308000    300.34069   -193663.34            0   -192590.03   -722.41369    85.208246    88.396235    88.368026     3.252828    1193.7578    26568.051 
  309000    301.30147   -193669.62            0   -192592.88   -814.54607    85.208246    88.396235    88.368026    2.8765029    1198.3789    26563.294 
  310000    299.99683    -193668.8            0   -192596.72   -970.07988    85.208246    88.396235    88.368026    2.7985353    1202.8499    26555.224 
  311000    301.64957   -193678.04            0   -192600.05   -762.96949    85.208246    88.396235    88.368026    2.9482737    1207.2947    26546.607 
  312000    301.04819   -193670.54            0    -192594.7   -932.39655    85.208246    88.396235    88.368026    3.2133163    1211.8502    26540.443 
  313000      303.554   -193675.01            0   -192590.21    -856.3272    85.208246    88.396235    88.368026    2.9299086     1216.281    26531.574 
  314000    304.22038   -193675.95            0   -192588.77    -868.6173    85.208246    88.396235    88.368026    2.7977378    1220.8001    26524.658 
  315000    300.85471    -193680.7            0   -192605.54    -952.0734    85.208246    88.396235    88.368026    2.8269018    1225.7408    26526.881 
  316000    302.26608      -193670            0    -192589.8   -678.93677    85.208246    88.396235    88.368026    2.8779159    1230.6906    26529.249 
  317000    301.12158   -193661.14            0   -192585.03   -684.82005    85.208246    88.396235    88.368026    3.0171037    1235.3724    26525.805 
  318000    300.65364   -193672.62            0   -192598.18   -870.88066    85.208246    88.396235    88.368026    3.1997293    1239.8741    26518.501 
  319000    300.12384   -193668.15            0   -192595.61   -980.42275    85.208246    88.396235    88.368026    3.1040524    1244.3318    26510.281 
  320000    298.65265   -193671.92            0   -192604.63   -937.43717    85.208246    88.396235    88.368026    2.9613712    1248.8287     26502.92 
  321000    300.57954   -193657.52            0   -192583.35   -717.54663    85.208246    88.396235    88.368026    2.6308005    1253.3495    26496.087 
  322000    300.82146   -193670.74            0   -192595.71   -1005.9355    85.208246    88.396235    88.368026    2.8520612    1257.8504     26488.85 
  323000    301.99356   -193669.65            0   -192590.43   -939.30891    85.208246    88.396235    88.368026    2.8771854    1262.4054    26482.768 
  324000    301.16345   -193664.05            0    -192587.8   -808.67542    85.208246    88.396235    88.368026    3.4409163    1267.4682     26487.31 
  325000    302.61422    -193684.3            0   -192602.87   -930.86144    85.208246    88.396235    88.368026    2.7595997    1272.3319    26487.636 
  326000    300.84163   -193659.96            0   -192584.85   -617.04437    85.208246    88.396235    88.368026    3.1340335    1276.9707    26483.262 
  327000    299.85418   -193674.84            0   -192603.26   -755.09339    85.208246    88.396235    88.368026    2.9866129    1281.3987     26474.53 
  328000    301.79435   -193674.14            0   -192595.63   -647.87214    85.208246    88.396235    88.368026    2.8505208    1285.8996    26467.328 
  329000    299.78707   -193665.11            0   -192593.78    -1044.626    85.208246    88.396235    88.368026    3.0706754    1290.4564    26461.295 
  330000    297.18031   -193661.79            0   -192599.77    -896.4832    85.208246    88.396235    88.368026    2.8562605    1294.9149    26453.261 
  331000    300.92882   -193672.85            0   -192597.44   -951.85192    85.208246    88.396235    88.368026    3.3760268    1299.4719    26447.259 
  332000    298.64092   -193665.71            0   -192598.47    -769.4211    85.208246    88.396235    88.368026    3.3816195    1304.1945    26444.625 
  333000    298.18924   -193670.21            0   -192604.58   -840.61595    85.208246    88.396235    88.368026    2.8386404     1309.209    26447.872 
  334000    299.21098   -193669.62            0   -192600.34   -525.84359    85.208246    88.396235    88.368026    3.0963281    1313.9507    26445.571 
  335000    300.63031   -193670.14            0   -192595.79   -834.48412    85.208246    88.396235    88.368026    2.9085325     1318.505    26439.495 
  336000     298.3036   -193668.01            0   -192601.97   -854.84719    85.208246    88.396235    88.368026    2.7236388    1322.9797     26431.84 
  337000    302.92502   -193677.82            0   -192595.27   -827.36102    85.208246    88.396235    88.368026    2.7940436    1327.4827    26424.769 
  338000    300.59031   -193668.06            0   -192593.85   -502.86049    85.208246    88.396235    88.368026    3.3845427    1331.9596    26417.199 
  339000     301.1981    -193674.8            0   -192598.42   -825.54889    85.208246    88.396235    88.368026    3.3493193     1336.389    26408.712 
  340000    299.62459   -193660.56            0   -192589.81   -979.91004    85.208246    88.396235    88.368026    2.5531715    1340.8366     26400.61 
  341000    299.74062   -193676.63            0   -192605.46   -928.32127    85.208246    88.396235    88.368026    3.1132278    1345.8625    26403.881 
  342000    298.82526   -193654.92            0   -192587.02    -958.6019    85.208246    88.396235    88.368026    3.2252082    1350.7147    26403.698 
  343000    296.97182    -193664.6            0   -192603.33   -928.75266    85.208246    88.396235    88.368026    3.6632574    1355.6494     26405.09 
  344000    299.97419   -193659.38            0   -192587.38   -531.89027    85.208246    88.396235    88.368026    3.3223148       1360.2    26398.984 
  345000    298.23469    -193669.8            0   -192604.01   -885.17962    85.208246    88.396235    88.368026     2.792556    1364.6845    26391.611 
  346000    299.85902   -193667.46            0   -192595.87   -672.77585    85.208246    88.396235    88.368026    3.3865718    1369.1779    26384.429 
  347000    297.25219   -193683.87            0   -192621.59   -1006.4283    85.208246    88.396235    88.368026    3.2267033    1373.7246    26378.288 
  348000    301.10762   -193673.54            0   -192597.48   -924.93697    85.208246    88.396235    88.368026    2.9128298     1378.182    26370.449 
  349000    299.58831    -193674.5            0   -192603.87   -916.06528    85.208246    88.396235    88.368026    3.4873167     1382.807    26365.828 
  350000    298.35984   -193670.84            0   -192604.61   -848.02196    85.208246    88.396235    88.368026    2.8620006    1387.9467    26370.986 
  351000    299.17875   -193674.27            0   -192605.11   -858.73826    85.208246    88.396235    88.368026    3.1594169    1392.6402    26367.629 
  352000    294.31703   -193660.74            0   -192608.95   -830.70996    85.208246    88.396235    88.368026    3.0914283    1397.2665    26362.996 
  353000    300.96927   -193666.98            0   -192591.42   -564.44183    85.208246    88.396235    88.368026    3.0182792     1401.739    26355.469 
  354000    297.34002   -193670.41            0   -192607.82   -724.79572    85.208246    88.396235    88.368026     3.079289    1406.2807    26349.259 
  355000    300.94526   -193667.42            0   -192591.95   -722.16659    85.208246    88.396235    88.368026    3.4125819    1410.8309    26343.219 
  356000    298.15979   -193674.15            0   -192608.63    -532.6144    85.208246    88.396235    88.368026     2.979935    1415.2466    26334.687 
  357000    298.91857    -193672.3            0   -192604.07   -820.42678    85.208246    88.396235    88.368026    3.3218075    1419.7948    26328.638 
  358000    300.64394   -193671.83            0   -192597.44   -547.02212    85.208246    88.396235    88.368026    2.9922555    1424.6302    26327.906 
  359000    297.49779   -193680.63            0   -192617.48   -815.79751    85.208246    88.396235    88.368026    3.0440089    1429.6474    26330.496 
  360000    298.93033   -193676.34            0   -192608.07   -874.33088    85.208246    88.396235    88.368026    2.6986081    1434.4143    26328.444 
  361000    302.28997   -193673.93            0   -192593.65   -894.12276    85.208246    88.396235    88.368026    3.4889519    1438.9321    26321.815 
  362000    301.35533   -193680.59            0   -192603.65   -853.10298    85.208246    88.396235    88.368026     2.747543    1443.3332    26313.075 
  363000    299.63374    -193676.1            0   -192605.32   -599.71164    85.208246    88.396235    88.368026    3.1541589    1447.8679    26306.788 
  364000    298.71795   -193676.84            0   -192609.32   -918.57159    85.208246    88.396235    88.368026    2.8414808    1452.3439    26299.451 
  365000    299.89927   -193660.02            0   -192588.28   -1000.5605    85.208246    88.396235    88.368026    3.2509523    1456.8159    26292.058 
  366000    300.95013   -193676.21            0   -192600.72   -737.05408    85.208246    88.396235    88.368026    2.8693539    1461.2918    26284.754 
  367000    297.62257   -193680.19            0   -192616.59   -829.97961    85.208246    88.396235    88.368026    3.1343889    1466.2245     26285.66 
  368000    299.27795   -193672.71            0   -192603.19   -840.50147    85.208246    88.396235    88.368026    2.8817744    1471.0289    26284.233 
  369000    303.44552   -193672.88            0   -192588.47   -818.16917    85.208246    88.396235    88.368026    2.7629047    1475.7029    26280.465 
  370000     298.9501   -193674.76            0   -192606.42   -887.59084    85.208246    88.396235    88.368026    3.2132782    1480.1692    26273.003 
  371000    298.06028   -193679.05            0   -192613.88   -847.48895    85.208246    88.396235    88.368026    2.9951286    1484.6518    26265.849 
  372000    298.63812   -193666.87            0   -192599.64   -856.82434    85.208246    88.396235    88.368026    3.4288496    1489.2393    26260.561 
  373000    299.24426   -193675.82            0   -192606.42   -1127.4656    85.208246    88.396235    88.368026    2.9882228    1493.6947    26252.956 
  374000    301.71777   -193673.23            0      -192595    -1029.532    85.208246    88.396235    88.368026     2.996773    1498.1539    26245.436 
  375000    301.12592   -193680.65            0   -192604.53    -763.9585    85.208246    88.396235    88.368026    3.4293393    1502.6717     26238.96 
  376000    301.49384   -193680.39            0   -192602.96   -785.47532    85.208246    88.396235    88.368026    2.9669554    1507.7801    26242.774 
  377000    300.05875    -193677.6            0   -192605.29   -884.17149    85.208246    88.396235    88.368026    2.8791251    1512.5022    26239.833 
  378000    298.67354   -193673.53            0   -192606.18   -790.32046    85.208246    88.396235    88.368026    2.8916458    1517.2371    26237.099 
  379000    299.36303   -193672.14            0   -192602.32   -904.30372    85.208246    88.396235    88.368026    2.9662617    1521.7097    26229.834 
  380000      302.501    -193678.2            0   -192597.17   -752.11909    85.208246    88.396235    88.368026    2.8187376    1526.1705    26222.383 
  381000    298.50319   -193690.22            0   -192623.47   -1030.0592    85.208246    88.396235    88.368026    2.7223794    1530.5813    26214.094 
  382000    300.34778   -193675.04            0    -192601.7   -877.87596    85.208246    88.396235    88.368026    2.9536049    1535.0513     26206.84 
  383000     296.8492   -193661.48            0   -192600.64   -784.80933    85.208246    88.396235    88.368026    3.3438678    1539.6185    26201.255 
  384000    299.47589    -193667.9            0   -192597.68    -985.1656    85.208246    88.396235    88.368026    2.8599368       1544.3    26197.617 
  385000    301.31367   -193674.26            0   -192597.47   -902.25963    85.208246    88.396235    88.368026    2.7916404    1549.3298    26199.861 
  386000    298.36826    -193676.9            0   -192610.64   -1016.1413    85.208246    88.396235    88.368026     3.057655    1554.0465    26196.784 
  387000    300.78179   -193673.67            0   -192598.78   -591.92619    85.208246    88.396235    88.368026    3.0418783     1558.669    26192.114 
  388000    300.62519   -193668.31            0   -192593.98   -938.75189    85.208246    88.396235    88.368026    2.8147888    1563.1222    26184.608 
  389000    299.36057   -193681.99            0   -192612.17   -949.45794    85.208246    88.396235    88.368026    3.5285905     1567.608    26177.666 
  390000     299.9382   -193673.07            0    -192601.2   -788.14221    85.208246    88.396235    88.368026    3.5461162    1572.0459    26169.941 
  391000    301.24014   -193690.45            0   -192613.92   -883.27114    85.208246    88.396235    88.368026    3.6409793    1576.4429    26161.555 
  392000    298.37593   -193668.69            0   -192602.39   -739.20808    85.208246    88.396235    88.368026    3.1733325    1580.9574    26155.137 
  393000    299.04643   -193680.34            0   -192611.65    -919.4076    85.208246    88.396235    88.368026     2.796798    1585.8981    26155.759 
  394000    298.21609   -193673.02            0    -192607.3   -731.80104    85.208246    88.396235    88.368026     3.248734    1590.8221    26156.075 
  395000    301.59767   -193685.32            0   -192607.52   -799.36961    85.208246    88.396235    88.368026    3.7920893    1595.5378    26152.946 
  396000     300.5852   -193667.24            0   -192593.05   -707.19927    85.208246    88.396235    88.368026     3.213167    1600.0432    26146.371 
  397000    294.47308   -193677.17            0   -192624.82   -946.16153    85.208246    88.396235    88.368026     2.754335    1604.4836    26138.749 
  398000    302.10664   -193673.53            0   -192593.91   -821.53985    85.208246    88.396235    88.368026    2.9164791    1609.0185     26132.68 
  399000    298.78772   -193681.45            0   -192613.69   -726.64891    85.208246    88.396235    88.368026    2.7988176    1613.5688    26126.869 
  400000    300.88253   -193683.95            0    -192608.7   -1152.3538    85.208246    88.396235    88.368026    3.3562662    1618.0644    26120.182 
  401000     301.2508   -193671.27            0    -192594.7   -1062.1181    85.208246    88.396235    88.368026    3.0014799     1622.553    26113.395 
  402000    300.03179   -193674.76            0   -192602.55   -511.94815    85.208246    88.396235    88.368026    2.9084335    1627.7427    26117.872 
  403000     298.3074   -193678.48            0   -192612.43   -924.79067    85.208246    88.396235    88.368026    2.9496386    1632.4654    26114.821 
  404000    300.96098   -193674.59            0   -192599.06   -1145.6222    85.208246    88.396235    88.368026    2.9358132    1637.0813     26110.06 
  405000    299.96859   -193670.94            0   -192598.95   -937.23646    85.208246    88.396235    88.368026    2.7618195    1641.5673    26103.232 
  406000    299.87533   -193685.47            0   -192613.82   -1074.2239    85.208246    88.396235    88.368026    3.0526062    1646.0564    26096.467 
  407000    301.65989   -193682.55            0   -192604.53    -744.6177    85.208246    88.396235    88.368026    2.7436421    1650.5555    26089.873 
  408000     301.3686   -193671.36            0   -192594.37   -797.79714    85.208246    88.396235    88.368026    2.9685087    1654.9837    26082.173 
  409000     300.9856   -193682.45            0   -192606.84   -889.65709    85.208246    88.396235    88.368026    3.1462834    1659.4796    26075.556 
  410000    299.58898   -193683.35            0   -192612.72   -784.18965    85.208246    88.396235    88.368026    2.7832587    1664.1547    26071.757 
  411000    300.38506   -193673.59            0   -192600.12   -873.54153    85.208246    88.396235    88.368026    3.5185502    1669.2165    26073.995 
  412000    300.80285   -193678.62            0   -192603.65   -649.05326    85.208246    88.396235    88.368026    3.1933411    1673.9277    26070.731 
  413000    301.07011   -193684.65            0   -192608.73   -880.94134    85.208246    88.396235    88.368026    2.8692854    1678.5575    26066.194 
  414000    296.65896   -193672.84            0   -192612.68   -853.15689    85.208246    88.396235    88.368026    2.9753724    1682.9584    26058.113 
  415000    301.68507   -193677.88            0   -192599.76   -939.53889    85.208246    88.396235    88.368026    3.0208728    1687.5405    26052.852 
  416000    299.57486    -193682.2            0   -192611.62   -1082.9025    85.208246    88.396235    88.368026    2.9440724    1691.9832    26045.446 
  417000    299.74868   -193682.96            0   -192611.76   -968.62166    85.208246    88.396235    88.368026    2.7085611     1696.465    26038.657 
  418000    298.75291   -193680.93            0   -192613.29   -930.95828    85.208246    88.396235    88.368026    2.8859187     1700.913    26031.364 
  419000    299.37355   -193684.07            0   -192614.21   -694.58122    85.208246    88.396235    88.368026    2.9590688     1705.808    26030.907 
  420000    301.30361   -193680.35            0   -192603.59   -850.75931    85.208246    88.396235    88.368026    2.9920742    1710.8199    26032.206 
  421000    299.59544    -193682.9            0   -192612.25   -945.69659    85.208246    88.396235    88.368026    3.0027933     1715.506    26028.526 
  422000    300.13275   -193681.28            0   -192608.71    -640.5112    85.208246    88.396235    88.368026    3.0259333    1719.9665    26021.428 
  423000    302.65776   -193685.11            0   -192603.51   -705.24787    85.208246    88.396235    88.368026    2.8336066    1724.4354    26014.472 
  424000     300.1754    -193676.3            0   -192603.58   -717.11286    85.208246    88.396235    88.368026    2.6995918    1728.8748    26007.085 
  425000    298.65552   -193689.59            0    -192622.3    -713.4318    85.208246    88.396235    88.368026    3.0548594    1733.3728    26000.591 
  426000    299.31025    -193669.1            0   -192599.47    -697.1796    85.208246    88.396235    88.368026    3.0108945    1737.8295    25993.493 
  427000    302.32217   -193689.13            0   -192608.74   -890.71939    85.208246    88.396235    88.368026    3.3202543    1742.3456    25987.292 
  428000    302.22855   -193682.64            0   -192602.58   -764.67427    85.208246    88.396235    88.368026    3.0368711    1747.4759    25990.237 
  429000    297.23433   -193681.45            0   -192619.24   -828.24698    85.208246    88.396235    88.368026    3.1350202    1752.1826    25986.855 
  430000    301.97937   -193683.43            0   -192604.26   -983.97572    85.208246    88.396235    88.368026    3.1182758    1756.8825    25983.368 
  431000    300.77886   -193687.19            0   -192612.31   -834.90222    85.208246    88.396235    88.368026    2.8772977    1761.3176    25975.967 
  432000    297.70875   -193681.17            0   -192617.27   -874.87799    85.208246    88.396235    88.368026    3.1009399    1765.8639    25970.218 
  433000    298.93428   -193679.53            0   -192611.24   -947.25978    85.208246    88.396235    88.368026      3.21817    1770.4264    25964.712 
  434000    301.33923   -193693.17            0   -192616.28   -898.99911    85.208246    88.396235    88.368026    3.2549954     1774.915    25958.131 
  435000    301.69889   -193678.39            0   -192600.22   -882.73377    85.208246    88.396235    88.368026    2.6611089    1779.4314    25951.968 
  436000    300.50277   -193675.98            0   -192602.09   -968.79259    85.208246    88.396235    88.368026     2.717488    1784.0843    25947.796 
  437000    299.31272   -193687.43            0   -192617.79   -812.91332    85.208246    88.396235    88.368026    2.6868968    1789.1279    25949.289 
  438000    300.97318   -193679.52            0   -192603.94   -785.13434    85.208246    88.396235    88.368026    3.2023076    1793.8358    25945.893 
  439000    301.18959   -193688.21            0   -192611.86   -727.96272    85.208246    88.396235    88.368026    3.4131277     1798.297    25938.932 
  440000    298.82026    -193681.8            0   -192613.92    -842.1509    85.208246    88.396235    88.368026    2.6708083    1802.6798    25930.855 
  441000    300.76198   -193677.03            0   -192602.21   -547.00641    85.208246    88.396235    88.368026    3.3152925     1807.111    25923.492 
  442000      298.843   -193684.98            0   -192617.01   -960.74455    85.208246    88.396235    88.368026    2.7101879    1811.5865    25916.779 
  443000    298.87334   -193684.82            0   -192616.75   -753.55185    85.208246    88.396235    88.368026    3.1142217    1816.0698    25910.187 
  444000    302.96083   -193684.32            0   -192601.64   -1055.5576    85.208246    88.396235    88.368026    2.7104985    1820.5084     25902.97 
  445000     298.7905   -193685.31            0   -192617.54   -1103.2797    85.208246    88.396235    88.368026    2.7459597     1825.302    25900.804 
  446000    302.34442   -193687.23            0   -192606.75   -790.53915    85.208246    88.396235    88.368026    3.6385183     1830.315     25901.73 
  447000     298.6863   -193691.83            0   -192624.43   -917.81347    85.208246    88.396235    88.368026    3.5425441    1835.1587    25900.238 
  448000     300.9602   -193688.13            0    -192612.6   -1029.3176    85.208246    88.396235    88.368026    3.0942057    1839.6943     25894.39 
  449000    297.59977   -193687.07            0   -192623.55   -991.86484    85.208246    88.396235    88.368026    3.4698314    1844.1683    25887.685 
  450000    300.25625   -193680.08            0   -192607.06   -753.47292    85.208246    88.396235    88.368026    3.1794942    1848.6395    25880.952 
  451000     297.4574   -193682.71            0    -192619.7   -938.62331    85.208246    88.396235    88.368026    3.6541057    1853.1892    25875.327 
  452000    301.17801   -193681.72            0   -192605.41   -754.95561    85.208246    88.396235    88.368026    3.2181635    1857.6649    25868.676 
  453000    300.95289   -193687.21            0    -192611.7   -920.80402    85.208246    88.396235    88.368026    2.8055543    1862.1869    25862.679 
  454000    300.37305   -193681.94            0   -192608.51   -896.87252    85.208246    88.396235    88.368026    2.8738749    1867.3027    25864.916 
  455000    299.64366   -193684.62            0   -192613.79   -904.69029    85.208246    88.396235    88.368026    3.3198678    1872.1335    25863.178 
  456000    300.54411   -193686.28            0   -192612.24   -987.26274    85.208246    88.396235    88.368026    3.1512547    1876.8185    25859.416 
  457000    301.80541   -193681.78            0   -192603.24   -1054.3716    85.208246    88.396235    88.368026    3.1248689    1881.2404    25852.033 
  458000    301.63814   -193698.56            0    -192620.6    -871.5158    85.208246    88.396235    88.368026    2.9095628    1885.7183    25845.433 
  459000    300.90508   -193688.42            0   -192613.09   -996.27303    85.208246    88.396235    88.368026    2.9528165    1890.1648    25838.414 
  460000    300.12791   -193696.64            0   -192624.09   -1108.4136    85.208246    88.396235    88.368026    2.8538857    1894.6591     25832.06 
  461000    298.17568   -193697.31            0   -192631.73   -903.01147    85.208246    88.396235    88.368026    2.8734584    1899.1658    25825.882 
  462000    300.02972   -193690.95            0   -192618.75   -893.62691    85.208246    88.396235    88.368026    3.5107306    1903.8505    25822.128 
  463000    297.83643   -193683.43            0   -192619.07   -844.37287    85.208246    88.396235    88.368026    2.5425475    1908.9565    25824.067 
  464000    302.41647   -193695.36            0   -192614.62   -981.19476    85.208246    88.396235    88.368026     2.835911    1913.7012    25821.099 
  465000     298.1268   -193692.82            0   -192627.42   -716.21878    85.208246    88.396235    88.368026    3.4188576    1918.2896    25816.018 
  466000    300.01895   -193685.63            0   -192613.46   -693.58255    85.208246    88.396235    88.368026    3.0278172    1922.7662    25809.438 
  467000     300.3599   -193693.86            0   -192620.48   -1025.4932    85.208246    88.396235    88.368026    3.0061249    1927.2558    25803.044 
  468000    303.98284   -193688.87            0   -192602.54   -568.92787    85.208246    88.396235    88.368026    2.9025028    1931.7173    25796.282 
  469000    301.75409    -193678.5            0   -192600.13   -858.97146    85.208246    88.396235    88.368026    3.3421197     1936.204    25789.867 
  470000    299.89991   -193681.97            0   -192610.24   -914.64551    85.208246    88.396235    88.368026     3.136852     1940.763    25784.423 
  471000    300.94531   -193692.87            0    -192617.4   -765.50466    85.208246    88.396235    88.368026    2.6892915    1945.7651    25784.854 
  472000    299.83663   -193690.21            0    -192618.7   -911.47243    85.208246    88.396235    88.368026    3.8331886      1950.67    25783.975 
  473000    300.06529   -193689.86            0   -192617.53   -701.71425    85.208246    88.396235    88.368026    2.7152109    1955.5975    25783.374 
  474000    298.90005   -193685.69            0   -192617.53   -1026.5856    85.208246    88.396235    88.368026    2.7262351    1960.0765    25776.855 
  475000    299.86503   -193696.84            0   -192625.23    -1016.642    85.208246    88.396235    88.368026    3.0213285    1964.5227    25769.915 
  476000    300.91609   -193693.29            0   -192617.92   -901.79483    85.208246    88.396235    88.368026    2.9146118    1968.9531     25762.78 
  477000    299.15242   -193694.08            0   -192625.01   -854.10696    85.208246    88.396235    88.368026    2.7813861    1973.3847    25755.674 
  478000    301.84254   -193690.94            0   -192612.26   -837.61016    85.208246    88.396235    88.368026    3.3855314    1977.7667    25747.935 
  479000    301.06415   -193679.41            0   -192603.51   -858.52613    85.208246    88.396235    88.368026    2.8756763    1982.2957    25742.119 
  480000    297.71086   -193684.39            0   -192620.47   -974.07655    85.208246    88.396235    88.368026    2.7631502    1987.4025    25743.795 
  481000    300.00393   -193694.65            0   -192622.54    -762.5956    85.208246    88.396235    88.368026     2.764448    1992.0842    25739.947 
  482000    301.79951   -193687.96            0   -192609.43   -862.77303    85.208246    88.396235    88.368026    3.1475146    1996.7502    25735.892 
  483000    300.80463   -193688.14            0   -192613.17   -784.51479    85.208246    88.396235    88.368026    3.3013322    2001.2539    25729.747 
  484000     299.7874   -193688.22            0   -192616.88   -1054.6161    85.208246    88.396235    88.368026     2.932275    2005.6772    25722.579 
  485000    301.51768   -193683.13            0   -192605.61    -944.0609    85.208246    88.396235    88.368026     3.466846    2010.2419    25717.233 
  486000    299.19925   -193694.09            0   -192624.85   -814.30517    85.208246    88.396235    88.368026     2.838873     2014.679    25710.261 
  487000    303.64951   -193681.98            0   -192596.84   -581.83556    85.208246    88.396235    88.368026     3.276756    2019.1635    25703.905 
  488000    299.54629   -193689.12            0   -192618.64   -1008.6396    85.208246    88.396235    88.368026    2.7855509    2023.8576    25700.219 
  489000    297.96961   -193679.65            0   -192614.81   -731.70295    85.208246    88.396235    88.368026    2.8862832    2028.8657    25700.506 
  490000    299.00949   -193678.24            0   -192609.69   -882.05662    85.208246    88.396235    88.368026    3.0689464    2033.6482    25697.918 
[...]
15930000    298.60225   -193796.47            0   -192729.36   -1647.8755    85.208246    88.396235    88.368026    3.7413086    45243.176    549.51226 
15931000    298.26345   -193803.31            0   -192737.41   -1179.2014    85.208246    88.396235    88.368026    4.4237465     45247.57    544.93076 
15932000    299.22235    -193811.4            0   -192742.08   -1593.8116    85.208246    88.396235    88.368026    2.8978503    45252.003    540.34977 
15933000     301.3042   -193804.78            0   -192728.03   -1382.1965    85.208246    88.396235    88.368026    3.0093646    45256.641    535.77122 
15934000     301.3023   -193822.01            0   -192745.26   -1564.4953    85.208246    88.396235    88.368026     2.989641    45261.686    531.19745 
15935000    299.43085   -193809.32            0   -192739.26   -1409.0531    85.208246    88.396235    88.368026    2.7189911    45266.472    526.62056 
15936000    301.87056   -193812.43            0   -192733.65   -1594.3264    85.208246    88.396235    88.368026     3.154317    45271.066    522.04143 
15937000    298.81062   -193824.88            0   -192757.04   -1285.5687    85.208246    88.396235    88.368026    3.4113858    45275.389    517.45919 
15938000    300.06003   -193810.33            0   -192738.02   -1453.0404    85.208246    88.396235    88.368026    2.7166005    45279.802    512.87802 
15939000    297.55699   -193819.36            0   -192755.99   -1606.3013    85.208246    88.396235    88.368026    2.6636024    45284.305    508.29789 
15940000    299.70909   -193807.44            0   -192736.38   -1557.9787    85.208246    88.396235    88.368026    2.8955757     45288.75    503.71714 
15941000    297.75762   -193801.59            0   -192737.51    -1341.763    85.208246    88.396235    88.368026    2.6004662    45293.148    499.13589 
15942000    299.79016   -193810.89            0   -192739.55   -1563.4878    85.208246    88.396235    88.368026    2.8158784    45297.873    494.55826 
15943000    297.86798   -193809.88            0    -192745.4   -1498.7805    85.208246    88.396235    88.368026    3.0579852     45302.82      489.983 
15944000    300.79841    -193809.9            0   -192734.95    -1587.322    85.208246    88.396235    88.368026    3.0377406    45307.545    485.40527 
15945000    299.42389    -193814.6            0   -192744.57   -1726.8594    85.208246    88.396235    88.368026    2.9030498    45312.042     480.8251 
15946000    299.04828   -193806.62            0   -192737.93   -1350.2294    85.208246    88.396235    88.368026    2.9030529    45316.479    476.24432 
15947000     298.1138   -193816.56            0    -192751.2   -1518.6472    85.208246    88.396235    88.368026    2.8344331    45320.862    471.66301 
15948000    298.73039   -193806.18            0   -192738.63    -1601.514    85.208246    88.396235    88.368026    3.1065454    45325.216    467.08143 
15949000    299.70435   -193807.59            0   -192736.55   -1366.6148    85.208246    88.396235    88.368026    2.8625309    45329.617    462.50038 
15950000    300.30189   -193799.48            0    -192726.3    -1264.394    85.208246    88.396235    88.368026    2.9659748    45334.054    457.91974 
15951000    296.83683   -193813.64            0   -192752.85   -1490.3114    85.208246    88.396235    88.368026     3.007206    45338.878    453.34299 
15952000    297.89085   -193802.15            0   -192737.59   -1519.2848    85.208246    88.396235    88.368026    3.1943134    45343.708    448.76624 
15953000    298.14923   -193807.33            0   -192741.85   -1441.6661    85.208246    88.396235    88.368026    3.0984326    45348.466    444.18875 
15954000    299.92543   -193807.34            0   -192735.51   -1358.8471    85.208246    88.396235    88.368026    3.4037738    45352.838    439.60747 
15955000    299.16662   -193812.58            0   -192743.46   -1471.9961    85.208246    88.396235    88.368026    2.8750333     45357.27    435.02682 
15956000    299.31993   -193806.06            0    -192736.4   -1454.3695    85.208246    88.396235    88.368026    3.3009015    45361.629     430.4455 
15957000    299.78285   -193817.33            0   -192746.01   -1789.6728    85.208246    88.396235    88.368026    2.9531996    45365.996     425.8643 
15958000    300.20901    -193804.5            0   -192731.66   -1379.0889    85.208246    88.396235    88.368026    3.1043364    45370.376    421.28327 
15959000    297.62558      -193808            0   -192744.39   -1473.2753    85.208246    88.396235    88.368026    3.0814649    45374.752    416.70224 
15960000    299.60197   -193805.97            0    -192735.3     -1610.77    85.208246    88.396235    88.368026    2.8451164    45379.773     412.1271 
15961000    298.62885   -193811.24            0   -192744.05   -1463.6686    85.208246    88.396235    88.368026    2.5338742    45384.523    407.54944 
15962000    298.82377   -193818.65            0   -192750.76   -1529.6091    85.208246    88.396235    88.368026    3.4416323    45389.294    402.97194 
15963000    300.72514   -193818.08            0   -192743.39   -1541.0631    85.208246    88.396235    88.368026      2.88691    45393.646    398.39072 
15964000    297.80536   -193800.18            0   -192735.93   -1522.9481    85.208246    88.396235    88.368026    3.2693076    45398.068    393.81015 
15965000    302.04679   -193809.54            0   -192730.13   -1383.1524    85.208246    88.396235    88.368026    2.8470683    45402.476    389.22949 
15966000    297.87092   -193816.72            0   -192752.24   -1323.8555    85.208246    88.396235    88.368026     4.127425    45406.846    384.64855 
15967000    298.79985   -193804.85            0   -192737.04   -1271.7504    85.208246    88.396235    88.368026    3.1087637     45411.29    380.06828 
15968000     301.5228   -193812.59            0   -192735.05   -1346.2103    85.208246    88.396235    88.368026    3.1269408    45415.768     375.4883 
15969000    298.79034   -193820.39            0   -192752.62   -1593.3629    85.208246    88.396235    88.368026    2.8642756    45420.888     370.9136 
15970000    299.94748   -193808.18            0   -192736.27   -1337.6552    85.208246    88.396235    88.368026    2.8244606    45425.598    366.33547 
15971000    300.99768   -193806.04            0   -192730.37   -1263.9451    85.208246    88.396235    88.368026    3.2899015    45430.299    361.75724 
15972000    298.23919   -193812.84            0   -192747.03   -1360.8982    85.208246    88.396235    88.368026    3.0878482    45434.787    357.17732 
15973000    300.60979   -193808.38            0    -192734.1   -1613.8179    85.208246    88.396235    88.368026    2.8373606    45439.172    352.59662 
15974000    299.54067   -193811.53            0   -192741.08   -1530.5272    85.208246    88.396235    88.368026    3.2145025    45443.646    348.01664 
15975000    299.49014   -193817.16            0   -192746.89   -1658.4445    85.208246    88.396235    88.368026    2.6429627    45448.011    343.43585 
15976000    299.58987   -193805.84            0   -192735.21   -1365.2725    85.208246    88.396235    88.368026     2.896318    45452.481     338.8559 
15977000    299.53631   -193814.02            0   -192743.58   -1405.0808    85.208246    88.396235    88.368026    2.8364721    45456.998     334.2763 
15978000    300.37212   -193810.87            0   -192737.44   -1147.2428    85.208246    88.396235    88.368026    3.1146825    45462.018    329.70037 
15979000    297.90082   -193812.42            0   -192747.83   -1466.1628    85.208246    88.396235    88.368026    2.8112609    45466.671    325.12173 
15980000    299.04952   -193811.82            0   -192743.12   -1304.1717    85.208246    88.396235    88.368026    3.1784059    45471.264    320.54264 
15981000    301.20436   -193806.55            0   -192730.15   -1440.5178    85.208246    88.396235    88.368026    3.0836052    45475.678    315.96232 
15982000    297.16454   -193809.16            0   -192747.19   -1246.6815    85.208246    88.396235    88.368026    3.8829783    45480.061    311.38181 
15983000    298.32802   -193808.95            0   -192742.83   -1445.0088    85.208246    88.396235    88.368026    3.0145611    45484.461    306.80146 
15984000    299.00923   -193810.65            0    -192742.1   -1414.9946    85.208246    88.396235    88.368026    3.0458696    45488.834    302.22096 
15985000    300.95581    -193810.3            0   -192734.78   -1325.3833    85.208246    88.396235    88.368026    3.4530863    45493.211    297.64054 
15986000    301.37883   -193809.77            0   -192732.75   -1436.5221    85.208246    88.396235    88.368026    2.9284177    45497.919    293.06228 
15987000    299.49897   -193808.77            0   -192738.46   -1463.1607    85.208246    88.396235    88.368026    2.7396538     45502.84    288.48535 
15988000    298.44082   -193807.16            0   -192740.64   -1525.8506    85.208246    88.396235    88.368026    3.2253883    45507.558    283.90708 
15989000    299.70989   -193810.82            0   -192739.76    -1262.642    85.208246    88.396235    88.368026    2.9719094    45512.003    279.32711 
15990000    299.64753   -193811.31            0   -192740.47   -1633.5737    85.208246    88.396235    88.368026     3.106519    45516.344    274.74654 
15991000     300.5196    -193811.5            0   -192737.55   -1164.8278    85.208246    88.396235    88.368026    2.8472582    45520.704    270.16613 
15992000    301.34398   -193806.81            0   -192729.91   -1372.1253    85.208246    88.396235    88.368026    2.7535413    45525.042    265.58564 
15993000    300.84333   -193815.41            0    -192740.3   -1513.3903    85.208246    88.396235    88.368026    2.7966018    45529.394    261.00528 
15994000    300.96356   -193808.03            0   -192732.49   -1464.0877    85.208246    88.396235    88.368026    2.8847608    45533.825     256.4254 
15995000    299.43464   -193822.59            0   -192752.52   -1526.4678    85.208246    88.396235    88.368026    2.9416926     45538.58    251.84735 
15996000    301.53342   -193817.97            0    -192740.4   -1309.6388    85.208246    88.396235    88.368026    2.9737535    45543.531    247.27033 
15997000    301.57178   -193803.82            0   -192726.11   -1467.3937    85.208246    88.396235    88.368026    3.3004566     45548.36    242.69258 
15998000    299.63962   -193805.12            0   -192734.31   -1413.3892    85.208246    88.396235    88.368026    2.7449179    45552.885    238.11319 
15999000    299.07301   -193817.24            0   -192748.46   -1567.6514    85.208246    88.396235    88.368026     2.903072     45557.32    233.53335 
16000000    299.75103   -193810.58            0   -192739.37    -1300.332    85.208246    88.396235    88.368026    3.0765567    45561.729    228.95341 
16001000    298.94789    -193812.3            0   -192743.96   -1613.7087    85.208246    88.396235    88.368026     3.183124    45566.123    224.37343 
16002000    299.80231   -193813.31            0   -192741.92   -1530.6795    85.208246    88.396235    88.368026    3.2101756    45570.596    219.79387 
16003000    298.33472   -193807.21            0   -192741.06   -1272.5458    85.208246    88.396235    88.368026    2.9176563    45575.039    215.21419 
16004000    301.73176   -193827.94            0   -192749.66   -1523.5863    85.208246    88.396235    88.368026    2.9600063    45580.028    210.63706 
16005000    302.08707   -193816.91            0   -192737.36   -1384.0912    85.208246    88.396235    88.368026    3.0015251    45584.789    206.05882 
16006000    296.98512   -193809.22            0    -192747.9   -1535.0885    85.208246    88.396235    88.368026    3.0229148    45589.557    201.48056 
16007000    301.54624   -193808.03            0    -192730.4   -1409.9403    85.208246    88.396235    88.368026    3.2032499    45594.013    196.90093 
16008000    298.67693   -193808.62            0   -192741.26   -1483.7217    85.208246    88.396235    88.368026    3.7299063     45598.42    192.32111 
16009000    299.37623   -193807.95            0   -192738.08   -1306.2633    85.208246    88.396235    88.368026    3.4647503    45602.815    187.74128 
16010000    298.05041   -193812.93            0    -192747.8   -1455.7033    85.208246    88.396235    88.368026    3.1607514    45607.254    183.16166 
16011000    300.05737   -193808.19            0   -192735.89   -1643.6012    85.208246    88.396235    88.368026    3.7392758     45611.65    178.58191 
16012000     301.3284   -193819.85            0   -192743.01   -1550.8957    85.208246    88.396235    88.368026    3.5470695     45616.21    174.00281 
16013000    303.46935   -193807.61            0   -192723.12   -1345.1937    85.208246    88.396235    88.368026    3.0225372     45621.22    169.42539 
16014000    299.48056   -193805.55            0   -192735.31   -1525.3808    85.208246    88.396235    88.368026     2.783703     45625.94    164.84683 
16015000    299.52647    -193815.7            0   -192745.29    -1375.325    85.208246    88.396235    88.368026    3.1946187    45630.523    160.26777 
16016000    298.63015   -193815.28            0   -192748.08   -1584.4495    85.208246    88.396235    88.368026    3.2582746    45634.913    155.68804 
16017000    297.89476   -193804.25            0   -192739.68   -1486.0319    85.208246    88.396235    88.368026    3.3149316    45639.195      151.108 
16018000    300.16615   -193821.56            0   -192748.87   -1516.8263    85.208246    88.396235    88.368026    2.8387207    45643.619    146.52847 
16019000    300.32126    -193800.6            0   -192727.36   -1351.6133    85.208246    88.396235    88.368026    3.2039466     45648.01    141.94887 
16020000    297.31188   -193807.63            0   -192745.14   -1558.2603    85.208246    88.396235    88.368026    3.1605303     45652.42    137.36937 
16021000    299.19016   -193812.72            0   -192743.52   -1602.6439    85.208246    88.396235    88.368026    3.3202382     45657.04    132.79051 
16022000     298.9053   -193800.64            0   -192732.46   -1496.5937    85.208246    88.396235    88.368026    3.3084367    45662.014    128.21264 
16023000    299.26335   -193806.24            0   -192736.77    -1287.656    85.208246    88.396235    88.368026    2.9163218    45666.738      123.634 
16024000    297.33754   -193810.34            0   -192747.76   -1642.3479    85.208246    88.396235    88.368026    3.0088643    45671.363    119.05509 
16025000    301.84965   -193808.81            0    -192730.1   -1566.3588    85.208246    88.396235    88.368026    2.9760057     45675.76    114.47559 
16026000    300.56723   -193822.41            0   -192748.29    -1413.677    85.208246    88.396235    88.368026    3.1705123    45680.116    109.89603 
16027000    300.61677   -193817.44            0   -192743.13   -1603.8994    85.208246    88.396235    88.368026    3.1029914     45684.63    105.31688 
16028000    300.58679   -193801.68            0   -192727.49   -1354.7645    85.208246    88.396235    88.368026    3.1592409    45689.001    100.73742 
16029000      296.459   -193810.32            0   -192750.88   -1278.8168    85.208246    88.396235    88.368026     3.487587     45693.41    96.158093 
16030000    300.04937   -193813.55            0   -192741.27   -1603.1145    85.208246    88.396235    88.368026    2.9350666    45698.229    91.579617 
16031000    301.43148   -193808.61            0    -192731.4   -1446.5735    85.208246    88.396235    88.368026    2.9294664    45703.007    87.001016 
16032000    299.81451    -193816.7            0   -192745.27   -1439.9693    85.208246    88.396235    88.368026    2.9249426    45707.809    82.422416 
16033000    299.24319   -193812.52            0   -192743.13   -1445.0568    85.208246    88.396235    88.368026    3.3132767    45712.287    77.843221 
16034000    303.21317   -193810.66            0   -192727.08   -1409.5036    85.208246    88.396235    88.368026    2.7443945    45716.703    73.263948 
16035000    299.23271   -193819.33            0   -192749.98    -1472.922    85.208246    88.396235    88.368026    2.8829117    45721.113    68.684697 
16036000    300.75128    -193809.4            0   -192734.62   -1446.5022    85.208246    88.396235    88.368026    3.1669765    45725.584    64.105565 
16037000    300.55825   -193805.29            0   -192731.19    -1462.476    85.208246    88.396235    88.368026    3.6826255    45729.978    59.526356 
16038000    298.21625   -193812.84            0   -192747.12   -1305.2477    85.208246    88.396235    88.368026    2.9740786    45734.402    54.947218 
16039000    304.56883   -193809.71            0   -192721.29   -1521.0018    85.208246    88.396235    88.368026    2.7768294    45739.338    50.368678 
16040000    300.05897   -193805.04            0   -192732.73     -1300.35    85.208246    88.396235    88.368026    3.3280447    45744.098    45.789888 
16041000    297.47012   -193816.67            0   -192753.62   -1696.9459    85.208246    88.396235    88.368026    3.0127672    45748.889     41.21109 
16042000    300.26294   -193812.46            0   -192739.42   -1583.1554    85.208246    88.396235    88.368026    3.0762408    45753.296    36.631942 
16043000    300.30314   -193810.73            0   -192737.55   -1386.4991    85.208246    88.396235    88.368026    3.3549144    45757.757    32.052867 
16044000    296.82826   -193811.87            0   -192751.11   -1652.9366    85.208246    88.396235    88.368026       3.0307    45762.099    27.473744 
16045000    301.85373   -193810.98            0   -192732.26   -1532.3297    85.208246    88.396235    88.368026    2.8409509    45766.543    22.894719 
16046000     298.1668   -193806.24            0    -192740.7    -1408.255    85.208246    88.396235    88.368026     2.979626    45770.975    18.315716 
16047000    300.74224   -193811.11            0   -192736.36   -1313.7396    85.208246    88.396235    88.368026    2.7204555    45775.418    13.736746 
16048000    298.82453   -193816.81            0   -192748.92   -1386.1779    85.208246    88.396235    88.368026      2.93301    45780.378    9.1579073 
16049000    300.34548   -193814.04            0   -192740.71   -1532.4786    85.208246    88.396235    88.368026    2.8103926    45785.167    4.5789746 
16050000    300.35336   -193800.44            0   -192727.08   -1620.3145    85.208246    88.396235    88.368026    3.1518758    45789.958            0 
Loop time of 45790 on 160 procs for 10000000 steps with 27648 atoms

Performance: 18.869 ns/day, 1.272 hours/ns, 218.388 timesteps/s
98.8% CPU use with 160 MPI tasks x 1 OpenMP threads

MPI task timing breakdown:
Section |  min time  |  avg time  |  max time  |%varavg| %total
---------------------------------------------------------------
Pair    | 9224.9     | 10667      | 12279      | 666.0 | 23.30
Kspace  | 25719      | 27456      | 28977      | 435.1 | 59.96
Neigh   | 188.03     | 208.57     | 226.65     |  56.3 |  0.46
Comm    | 5544.5     | 5935.5     | 6663.7     | 273.5 | 12.96
Output  | 231.18     | 231.18     | 231.19     |   0.0 |  0.50
Modify  | 939.47     | 1132.5     | 1346.7     | 279.3 |  2.47
Other   |            | 159.5      |            |       |  0.35

Nlocal:    172.8 ave 192 max 160 min
Histogram: 11 12 19 31 36 35 11 1 2 2
Nghost:    3443.64 ave 3495 max 3401 min
Histogram: 7 10 19 30 27 27 22 11 5 2
Neighs:    41177.5 ave 47589 max 35066 min
Histogram: 6 7 25 30 24 9 21 24 10 4

Total # of neighbors = 6588400
Ave neighs/atom = 238.296
Neighbor list builds = 226263
Dangerous builds = 0

# Final Commands
variable        final_energy equal etotal
print           "final_energy: ${'final_energy'}"
ERROR on proc 0: Substitution for illegal variable 'final_energy' (../input.cpp:553)
Last command: final_energy: ${'final_energy'
