  54  54   1   0
  0.2002909E+02  0.1027245E-08  0.1027326E-08  0.1024957E-08  0.5000000E-15
   1.0000000000000000E-004
  CAR 
 unknown system                          
     11.20029392    -51.04434066  301      0.46309445      1.00000000
    -51.044  0.0000E+00  0.0000E+00
    -50.837  0.0000E+00  0.0000E+00
    -50.629  0.0000E+00  0.0000E+00
    -50.422  0.0000E+00  0.0000E+00
    -50.214  0.0000E+00  0.0000E+00
    -50.007  0.0000E+00  0.0000E+00
    -49.799  0.0000E+00  0.0000E+00
    -49.592  0.0000E+00  0.0000E+00
    -49.384  0.0000E+00  0.0000E+00
    -49.177  0.0000E+00  0.0000E+00
    -48.970  0.0000E+00  0.0000E+00
    -48.762  0.0000E+00  0.0000E+00
    -48.555  0.0000E+00  0.0000E+00
    -48.347  0.2266E-05  0.4702E-06
    -48.140  0.2377E-01  0.4932E-02
    -47.932  0.4106E-01  0.1345E-01
    -47.725  0.3434E-01  0.2058E-01
    -47.517  0.2132E-01  0.2500E-01
    -47.310  0.3642E-07  0.2500E-01
    -47.102  0.0000E+00  0.2500E-01
    -46.895  0.0000E+00  0.2500E-01
    -46.687  0.0000E+00  0.2500E-01
    -46.480  0.0000E+00  0.2500E-01
    -46.272  0.0000E+00  0.2500E-01
    -46.065  0.0000E+00  0.2500E-01
    -45.857  0.0000E+00  0.2500E-01
    -45.650  0.0000E+00  0.2500E-01
    -45.442  0.0000E+00  0.2500E-01
    -45.235  0.0000E+00  0.2500E-01
    -45.027  0.0000E+00  0.2500E-01
    -44.820  0.0000E+00  0.2500E-01
    -44.612  0.0000E+00  0.2500E-01
    -44.405  0.0000E+00  0.2500E-01
    -44.197  0.0000E+00  0.2500E-01
    -43.990  0.0000E+00  0.2500E-01
    -43.782  0.0000E+00  0.2500E-01
    -43.575  0.0000E+00  0.2500E-01
    -43.368  0.1655E-12  0.2500E-01
    -43.160  0.4486E-02  0.2593E-01
    -42.953  0.1961E-01  0.3000E-01
    -42.745  0.6885E-01  0.4429E-01
    -42.538  0.1589E+00  0.7725E-01
    -42.330  0.1577E+00  0.1100E+00
    -42.123  0.1381E-03  0.1100E+00
    -41.915  0.0000E+00  0.1100E+00
    -41.708  0.0000E+00  0.1100E+00
    -41.500  0.0000E+00  0.1100E+00
    -41.293  0.0000E+00  0.1100E+00
    -41.085  0.0000E+00  0.1100E+00
    -40.878  0.0000E+00  0.1100E+00
    -40.670  0.0000E+00  0.1100E+00
    -40.463  0.0000E+00  0.1100E+00
    -40.255  0.0000E+00  0.1100E+00
    -40.048  0.0000E+00  0.1100E+00
    -39.840  0.0000E+00  0.1100E+00
    -39.633  0.0000E+00  0.1100E+00
    -39.425  0.0000E+00  0.1100E+00
    -39.218  0.0000E+00  0.1100E+00
    -39.010  0.0000E+00  0.1100E+00
    -38.803  0.0000E+00  0.1100E+00
    -38.595  0.0000E+00  0.1100E+00
    -38.388  0.0000E+00  0.1100E+00
    -38.180  0.0000E+00  0.1100E+00
    -37.973  0.0000E+00  0.1100E+00
    -37.765  0.0000E+00  0.1100E+00
    -37.558  0.0000E+00  0.1100E+00
    -37.351  0.0000E+00  0.1100E+00
    -37.143  0.0000E+00  0.1100E+00
    -36.936  0.0000E+00  0.1100E+00
    -36.728  0.0000E+00  0.1100E+00
    -36.521  0.0000E+00  0.1100E+00
    -36.313  0.0000E+00  0.1100E+00
    -36.106  0.0000E+00  0.1100E+00
    -35.898  0.0000E+00  0.1100E+00
    -35.691  0.0000E+00  0.1100E+00
    -35.483  0.0000E+00  0.1100E+00
    -35.276  0.0000E+00  0.1100E+00
    -35.068  0.0000E+00  0.1100E+00
    -34.861  0.0000E+00  0.1100E+00
    -34.653  0.0000E+00  0.1100E+00
    -34.446  0.0000E+00  0.1100E+00
    -34.238  0.0000E+00  0.1100E+00
    -34.031  0.0000E+00  0.1100E+00
    -33.823  0.0000E+00  0.1100E+00
    -33.616  0.0000E+00  0.1100E+00
    -33.408  0.0000E+00  0.1100E+00
    -33.201  0.0000E+00  0.1100E+00
    -32.993  0.0000E+00  0.1100E+00
    -32.786  0.0000E+00  0.1100E+00
    -32.578  0.0000E+00  0.1100E+00
    -32.371  0.0000E+00  0.1100E+00
    -32.163  0.0000E+00  0.1100E+00
    -31.956  0.0000E+00  0.1100E+00
    -31.749  0.0000E+00  0.1100E+00
    -31.541  0.0000E+00  0.1100E+00
    -31.334  0.0000E+00  0.1100E+00
    -31.126  0.0000E+00  0.1100E+00
    -30.919  0.0000E+00  0.1100E+00
    -30.711  0.0000E+00  0.1100E+00
    -30.504  0.0000E+00  0.1100E+00
    -30.296  0.0000E+00  0.1100E+00
    -30.089  0.0000E+00  0.1100E+00
    -29.881  0.0000E+00  0.1100E+00
    -29.674  0.0000E+00  0.1100E+00
    -29.466  0.0000E+00  0.1100E+00
    -29.259  0.0000E+00  0.1100E+00
    -29.051  0.0000E+00  0.1100E+00
    -28.844  0.0000E+00  0.1100E+00
    -28.636  0.0000E+00  0.1100E+00
    -28.429  0.0000E+00  0.1100E+00
    -28.221  0.0000E+00  0.1100E+00
    -28.014  0.0000E+00  0.1100E+00
    -27.806  0.0000E+00  0.1100E+00
    -27.599  0.0000E+00  0.1100E+00
    -27.391  0.0000E+00  0.1100E+00
    -27.184  0.3207E-12  0.1100E+00
    -26.976  0.1140E-01  0.1124E+00
    -26.769  0.9601E-01  0.1323E+00
    -26.561  0.1582E+00  0.1651E+00
    -26.354  0.8841E-01  0.1835E+00
    -26.146  0.7466E-02  0.1850E+00
    -25.939  0.0000E+00  0.1850E+00
    -25.732  0.0000E+00  0.1850E+00
    -25.524  0.0000E+00  0.1850E+00
    -25.317  0.0000E+00  0.1850E+00
    -25.109  0.0000E+00  0.1850E+00
    -24.902  0.0000E+00  0.1850E+00
    -24.694  0.0000E+00  0.1850E+00
    -24.487  0.0000E+00  0.1850E+00
    -24.279  0.0000E+00  0.1850E+00
    -24.072  0.0000E+00  0.1850E+00
    -23.864  0.0000E+00  0.1850E+00
    -23.657  0.0000E+00  0.1850E+00
    -23.449  0.0000E+00  0.1850E+00
    -23.242  0.0000E+00  0.1850E+00
    -23.034  0.0000E+00  0.1850E+00
    -22.827  0.0000E+00  0.1850E+00
    -22.619  0.0000E+00  0.1850E+00
    -22.412  0.0000E+00  0.1850E+00
    -22.204  0.0000E+00  0.1850E+00
    -21.997  0.0000E+00  0.1850E+00
    -21.789  0.0000E+00  0.1850E+00
    -21.582  0.0000E+00  0.1850E+00
    -21.374  0.0000E+00  0.1850E+00
    -21.167  0.0000E+00  0.1850E+00
    -20.959  0.0000E+00  0.1850E+00
    -20.752  0.0000E+00  0.1850E+00
    -20.544  0.0000E+00  0.1850E+00
    -20.337  0.0000E+00  0.1850E+00
    -20.130  0.0000E+00  0.1850E+00
    -19.922  0.0000E+00  0.1850E+00
    -19.715  0.0000E+00  0.1850E+00
    -19.507  0.0000E+00  0.1850E+00
    -19.300  0.0000E+00  0.1850E+00
    -19.092  0.0000E+00  0.1850E+00
    -18.885  0.0000E+00  0.1850E+00
    -18.677  0.0000E+00  0.1850E+00
    -18.470  0.0000E+00  0.1850E+00
    -18.262  0.0000E+00  0.1850E+00
    -18.055  0.0000E+00  0.1850E+00
    -17.847  0.0000E+00  0.1850E+00
    -17.640  0.0000E+00  0.1850E+00
    -17.432  0.0000E+00  0.1850E+00
    -17.225  0.0000E+00  0.1850E+00
    -17.017  0.0000E+00  0.1850E+00
    -16.810  0.0000E+00  0.1850E+00
    -16.602  0.0000E+00  0.1850E+00
    -16.395  0.0000E+00  0.1850E+00
    -16.187  0.0000E+00  0.1850E+00
    -15.980  0.0000E+00  0.1850E+00
    -15.772  0.0000E+00  0.1850E+00
    -15.565  0.0000E+00  0.1850E+00
    -15.357  0.0000E+00  0.1850E+00
    -15.150  0.0000E+00  0.1850E+00
    -14.942  0.0000E+00  0.1850E+00
    -14.735  0.0000E+00  0.1850E+00
    -14.527  0.0000E+00  0.1850E+00
    -14.320  0.0000E+00  0.1850E+00
    -14.113  0.0000E+00  0.1850E+00
    -13.905  0.1864E-07  0.1850E+00
    -13.698  0.1896E-01  0.1889E+00
    -13.490  0.1914E-01  0.1929E+00
    -13.283  0.5871E-01  0.2051E+00
    -13.075  0.1229E+00  0.2306E+00
    -12.868  0.1404E+00  0.2597E+00
    -12.660  0.1758E+00  0.2962E+00
    -12.453  0.1126E+00  0.3196E+00
    -12.245  0.6241E-01  0.3325E+00
    -12.038  0.5829E-01  0.3446E+00
    -11.830  0.1938E-02  0.3450E+00
    -11.623  0.0000E+00  0.3450E+00
    -11.415  0.0000E+00  0.3450E+00
    -11.208  0.0000E+00  0.3450E+00
    -11.000  0.0000E+00  0.3450E+00
    -10.793  0.0000E+00  0.3450E+00
    -10.585  0.0000E+00  0.3450E+00
    -10.378  0.0000E+00  0.3450E+00
    -10.170  0.0000E+00  0.3450E+00
     -9.963  0.0000E+00  0.3450E+00
     -9.755  0.0000E+00  0.3450E+00
     -9.548  0.0000E+00  0.3450E+00
     -9.340  0.0000E+00  0.3450E+00
     -9.133  0.0000E+00  0.3450E+00
     -8.925  0.0000E+00  0.3450E+00
     -8.718  0.0000E+00  0.3450E+00
     -8.511  0.0000E+00  0.3450E+00
     -8.303  0.0000E+00  0.3450E+00
     -8.096  0.0000E+00  0.3450E+00
     -7.888  0.0000E+00  0.3450E+00
     -7.681  0.0000E+00  0.3450E+00
     -7.473  0.0000E+00  0.3450E+00
     -7.266  0.0000E+00  0.3450E+00
     -7.058  0.0000E+00  0.3450E+00
     -6.851  0.0000E+00  0.3450E+00
     -6.643  0.0000E+00  0.3450E+00
     -6.436  0.0000E+00  0.3450E+00
     -6.228  0.0000E+00  0.3450E+00
     -6.021  0.0000E+00  0.3450E+00
     -5.813  0.0000E+00  0.3450E+00
     -5.606  0.0000E+00  0.3450E+00
     -5.398  0.0000E+00  0.3450E+00
     -5.191  0.0000E+00  0.3450E+00
     -4.983  0.0000E+00  0.3450E+00
     -4.776  0.0000E+00  0.3450E+00
     -4.568  0.0000E+00  0.3450E+00
     -4.361  0.0000E+00  0.3450E+00
     -4.153  0.0000E+00  0.3450E+00
     -3.946  0.0000E+00  0.3450E+00
     -3.738  0.0000E+00  0.3450E+00
     -3.531  0.3538E-13  0.3450E+00
     -3.323  0.7174E-03  0.3451E+00
     -3.116  0.2661E-01  0.3507E+00
     -2.908  0.5108E-01  0.3613E+00
     -2.701  0.7817E-01  0.3775E+00
     -2.494  0.1553E+00  0.4097E+00
     -2.286  0.1600E+00  0.4429E+00
     -2.079  0.1376E+00  0.4715E+00
     -1.871  0.1392E+00  0.5003E+00
     -1.664  0.1425E+00  0.5299E+00
     -1.456  0.1172E+00  0.5542E+00
     -1.249  0.1436E+00  0.5840E+00
     -1.041  0.1689E+00  0.6190E+00
     -0.834  0.1638E+00  0.6530E+00
     -0.626  0.1662E+00  0.6875E+00
     -0.419  0.2014E+00  0.7293E+00
     -0.211  0.1813E+00  0.7669E+00
     -0.004  0.1571E+00  0.7995E+00
      0.204  0.1190E+00  0.8242E+00
      0.411  0.3828E-02  0.8250E+00
      0.619  0.0000E+00  0.8250E+00
      0.826  0.0000E+00  0.8250E+00
      1.034  0.0000E+00  0.8250E+00
      1.241  0.0000E+00  0.8250E+00
      1.449  0.0000E+00  0.8250E+00
      1.656  0.0000E+00  0.8250E+00
      1.864  0.0000E+00  0.8250E+00
      2.071  0.0000E+00  0.8250E+00
      2.279  0.0000E+00  0.8250E+00
      2.486  0.0000E+00  0.8250E+00
      2.694  0.0000E+00  0.8250E+00
      2.901  0.0000E+00  0.8250E+00
      3.108  0.0000E+00  0.8250E+00
      3.316  0.8961E-14  0.8250E+00
      3.523  0.1098E-02  0.8252E+00
      3.731  0.5463E-01  0.8366E+00
      3.938  0.3098E-01  0.8430E+00
      4.146  0.1720E+00  0.8787E+00
      4.353  0.9222E-01  0.8978E+00
      4.561  0.1057E-01  0.9000E+00
      4.768  0.0000E+00  0.9000E+00
      4.976  0.4909E-05  0.9000E+00
      5.183  0.1831E-01  0.9038E+00
      5.391  0.4498E-01  0.9131E+00
      5.598  0.9793E-01  0.9335E+00
      5.806  0.6135E-01  0.9462E+00
      6.013  0.1840E-01  0.9500E+00
      6.221  0.1240E-05  0.9500E+00
      6.428  0.2318E-02  0.9505E+00
      6.636  0.6948E-03  0.9506E+00
      6.843  0.1557E-12  0.9506E+00
      7.051  0.1001E-02  0.9508E+00
      7.258  0.1648E-01  0.9543E+00
      7.466  0.2585E-01  0.9596E+00
      7.673  0.3363E-01  0.9666E+00
      7.881  0.4443E-01  0.9758E+00
      8.088  0.8170E-01  0.9928E+00
      8.296  0.3097E-01  0.9992E+00
      8.503  0.3906E-02  0.1000E+01
      8.711  0.2833E-06  0.1000E+01
      8.918  0.0000E+00  0.1000E+01
      9.125  0.0000E+00  0.1000E+01
      9.333  0.0000E+00  0.1000E+01
      9.540  0.0000E+00  0.1000E+01
      9.748  0.0000E+00  0.1000E+01
      9.955  0.0000E+00  0.1000E+01
     10.163  0.0000E+00  0.1000E+01
     10.370  0.0000E+00  0.1000E+01
     10.578  0.0000E+00  0.1000E+01
     10.785  0.0000E+00  0.1000E+01
     10.993  0.0000E+00  0.1000E+01
     11.200  0.0000E+00  0.1000E+01
     11.20029392    -51.04434066  301      0.46309445      1.00000000
    -51.044  0.0000E+00  0.0000E+00  0.0000E+00  0.0000E+00  0.0000E+00  0.0000E+00  0.0000E+00  0.0000E+00  0.0000E+00
    -50.837  0.0000E+00  0.0000E+00  0.0000E+00  0.0000E+00  0.0000E+00  0.0000E+00  0.0000E+00  0.0000E+00  0.0000E+00
    -50.629  0.0000E+00  0.0000E+00  0.0000E+00  0.0000E+00  0.0000E+00  0.0000E+00  0.0000E+00  0.0000E+00  0.0000E+00
    -50.422  0.0000E+00  0.0000E+00  0.0000E+00  0.0000E+00  0.0000E+00  0.0000E+00  0.0000E+00  0.0000E+00  0.0000E+00
    -50.214  0.0000E+00  0.0000E+00  0.0000E+00  0.0000E+00  0.0000E+00  0.0000E+00  0.0000E+00  0.0000E+00  0.0000E+00
    -50.007  0.0000E+00  0.0000E+00  0.0000E+00  0.0000E+00  0.0000E+00  0.0000E+00  0.0000E+00  0.0000E+00  0.0000E+00
    -49.799  0.0000E+00  0.0000E+00  0.0000E+00  0.0000E+00  0.0000E+00  0.0000E+00  0.0000E+00  0.0000E+00  0.0000E+00
    -49.592  0.0000E+00  0.0000E+00  0.0000E+00  0.0000E+00  0.0000E+00  0.0000E+00  0.0000E+00  0.0000E+00  0.0000E+00
    -49.384  0.0000E+00  0.0000E+00  0.0000E+00  0.0000E+00  0.0000E+00  0.0000E+00  0.0000E+00  0.0000E+00  0.0000E+00
    -49.177  0.0000E+00  0.0000E+00  0.0000E+00  0.0000E+00  0.0000E+00  0.0000E+00  0.0000E+00  0.0000E+00  0.0000E+00
    -48.970  0.0000E+00  0.0000E+00  0.0000E+00  0.0000E+00  0.0000E+00  0.0000E+00  0.0000E+00  0.0000E+00  0.0000E+00
    -48.762  0.0000E+00  0.0000E+00  0.0000E+00  0.0000E+00  0.0000E+00  0.0000E+00  0.0000E+00  0.0000E+00  0.0000E+00
    -48.555  0.0000E+00  0.0000E+00  0.0000E+00  0.0000E+00  0.0000E+00  0.0000E+00  0.0000E+00  0.0000E+00  0.0000E+00
    -48.347  0.2239E-12  0.9819E-14  0.1193E-13  0.6593E-13  0.0000E+00  0.0000E+00  0.0000E+00  0.0000E+00  0.0000E+00
    -48.140  0.2346E-08  0.1028E-09  0.1249E-09  0.6900E-09  0.0000E+00  0.0000E+00  0.0000E+00  0.0000E+00  0.0000E+00
    -47.932  0.1860E-08  0.1483E-09  0.1358E-09  0.2305E-09  0.0000E+00  0.0000E+00  0.0000E+00  0.0000E+00  0.0000E+00
    -47.725  0.2139E-08  0.4578E-09  0.2228E-09  0.7523E-10  0.0000E+00  0.0000E+00  0.0000E+00  0.0000E+00  0.0000E+00
    -47.517  0.1734E-08  0.7261E-10  0.3241E-09  0.1042E-09  0.0000E+00  0.0000E+00  0.0000E+00  0.0000E+00  0.0000E+00
    -47.310  0.2962E-14  0.1240E-15  0.5536E-15  0.1780E-15  0.0000E+00  0.0000E+00  0.0000E+00  0.0000E+00  0.0000E+00
    -47.102  0.0000E+00  0.0000E+00  0.0000E+00  0.0000E+00  0.0000E+00  0.0000E+00  0.0000E+00  0.0000E+00  0.0000E+00
    -46.895  0.0000E+00  0.0000E+00  0.0000E+00  0.0000E+00  0.0000E+00  0.0000E+00  0.0000E+00  0.0000E+00  0.0000E+00
    -46.687  0.0000E+00  0.0000E+00  0.0000E+00  0.0000E+00  0.0000E+00  0.0000E+00  0.0000E+00  0.0000E+00  0.0000E+00
    -46.480  0.0000E+00  0.0000E+00  0.0000E+00  0.0000E+00  0.0000E+00  0.0000E+00  0.0000E+00  0.0000E+00  0.0000E+00
    -46.272  0.0000E+00  0.0000E+00  0.0000E+00  0.0000E+00  0.0000E+00  0.0000E+00  0.0000E+00  0.0000E+00  0.0000E+00
    -46.065  0.0000E+00  0.0000E+00  0.0000E+00  0.0000E+00  0.0000E+00  0.0000E+00  0.0000E+00  0.0000E+00  0.0000E+00
    -45.857  0.0000E+00  0.0000E+00  0.0000E+00  0.0000E+00  0.0000E+00  0.0000E+00  0.0000E+00  0.0000E+00  0.0000E+00
    -45.650  0.0000E+00  0.0000E+00  0.0000E+00  0.0000E+00  0.0000E+00  0.0000E+00  0.0000E+00  0.0000E+00  0.0000E+00
    -45.442  0.0000E+00  0.0000E+00  0.0000E+00  0.0000E+00  0.0000E+00  0.0000E+00  0.0000E+00  0.0000E+00  0.0000E+00
    -45.235  0.0000E+00  0.0000E+00  0.0000E+00  0.0000E+00  0.0000E+00  0.0000E+00  0.0000E+00  0.0000E+00  0.0000E+00
    -45.027  0.0000E+00  0.0000E+00  0.0000E+00  0.0000E+00  0.0000E+00  0.0000E+00  0.0000E+00  0.0000E+00  0.0000E+00
    -44.820  0.0000E+00  0.0000E+00  0.0000E+00  0.0000E+00  0.0000E+00  0.0000E+00  0.0000E+00  0.0000E+00  0.0000E+00
    -44.612  0.0000E+00  0.0000E+00  0.0000E+00  0.0000E+00  0.0000E+00  0.0000E+00  0.0000E+00  0.0000E+00  0.0000E+00
    -44.405  0.0000E+00  0.0000E+00  0.0000E+00  0.0000E+00  0.0000E+00  0.0000E+00  0.0000E+00  0.0000E+00  0.0000E+00
    -44.197  0.0000E+00  0.0000E+00  0.0000E+00  0.0000E+00  0.0000E+00  0.0000E+00  0.0000E+00  0.0000E+00  0.0000E+00
    -43.990  0.0000E+00  0.0000E+00  0.0000E+00  0.0000E+00  0.0000E+00  0.0000E+00  0.0000E+00  0.0000E+00  0.0000E+00
    -43.782  0.0000E+00  0.0000E+00  0.0000E+00  0.0000E+00  0.0000E+00  0.0000E+00  0.0000E+00  0.0000E+00  0.0000E+00
    -43.575  0.0000E+00  0.0000E+00  0.0000E+00  0.0000E+00  0.0000E+00  0.0000E+00  0.0000E+00  0.0000E+00  0.0000E+00
    -43.368  0.6312E-20  0.1379E-19  0.4001E-20  0.1535E-19  0.0000E+00  0.0000E+00  0.0000E+00  0.0000E+00  0.0000E+00
    -43.160  0.1711E-09  0.3737E-09  0.1084E-09  0.4160E-09  0.0000E+00  0.0000E+00  0.0000E+00  0.0000E+00  0.0000E+00
    -42.953  0.5125E-05  0.1636E-08  0.4757E-09  0.1819E-08  0.0000E+00  0.0000E+00  0.0000E+00  0.0000E+00  0.0000E+00
    -42.745  0.8003E+01  0.3052E-05  0.2348E-05  0.7732E-08  0.0000E+00  0.0000E+00  0.0000E+00  0.0000E+00  0.0000E+00
    -42.538  0.1534E+01  0.5888E-06  0.4589E-06  0.1004E-07  0.0000E+00  0.0000E+00  0.0000E+00  0.0000E+00  0.0000E+00
    -42.330  0.4738E-06  0.6526E-08  0.5461E-08  0.4187E-08  0.0000E+00  0.0000E+00  0.0000E+00  0.0000E+00  0.0000E+00
    -42.123  0.2526E-09  0.8794E-11  0.2491E-11  0.3380E-11  0.0000E+00  0.0000E+00  0.0000E+00  0.0000E+00  0.0000E+00
    -41.915  0.0000E+00  0.0000E+00  0.0000E+00  0.0000E+00  0.0000E+00  0.0000E+00  0.0000E+00  0.0000E+00  0.0000E+00
    -41.708  0.0000E+00  0.0000E+00  0.0000E+00  0.0000E+00  0.0000E+00  0.0000E+00  0.0000E+00  0.0000E+00  0.0000E+00
    -41.500  0.0000E+00  0.0000E+00  0.0000E+00  0.0000E+00  0.0000E+00  0.0000E+00  0.0000E+00  0.0000E+00  0.0000E+00
    -41.293  0.0000E+00  0.0000E+00  0.0000E+00  0.0000E+00  0.0000E+00  0.0000E+00  0.0000E+00  0.0000E+00  0.0000E+00
    -41.085  0.0000E+00  0.0000E+00  0.0000E+00  0.0000E+00  0.0000E+00  0.0000E+00  0.0000E+00  0.0000E+00  0.0000E+00
    -40.878  0.0000E+00  0.0000E+00  0.0000E+00  0.0000E+00  0.0000E+00  0.0000E+00  0.0000E+00  0.0000E+00  0.0000E+00
    -40.670  0.0000E+00  0.0000E+00  0.0000E+00  0.0000E+00  0.0000E+00  0.0000E+00  0.0000E+00  0.0000E+00  0.0000E+00
    -40.463  0.0000E+00  0.0000E+00  0.0000E+00  0.0000E+00  0.0000E+00  0.0000E+00  0.0000E+00  0.0000E+00  0.0000E+00
    -40.255  0.0000E+00  0.0000E+00  0.0000E+00  0.0000E+00  0.0000E+00  0.0000E+00  0.0000E+00  0.0000E+00  0.0000E+00
    -40.048  0.0000E+00  0.0000E+00  0.0000E+00  0.0000E+00  0.0000E+00  0.0000E+00  0.0000E+00  0.0000E+00  0.0000E+00
    -39.840  0.0000E+00  0.0000E+00  0.0000E+00  0.0000E+00  0.0000E+00  0.0000E+00  0.0000E+00  0.0000E+00  0.0000E+00
    -39.633  0.0000E+00  0.0000E+00  0.0000E+00  0.0000E+00  0.0000E+00  0.0000E+00  0.0000E+00  0.0000E+00  0.0000E+00
    -39.425  0.0000E+00  0.0000E+00  0.0000E+00  0.0000E+00  0.0000E+00  0.0000E+00  0.0000E+00  0.0000E+00  0.0000E+00
    -39.218  0.0000E+00  0.0000E+00  0.0000E+00  0.0000E+00  0.0000E+00  0.0000E+00  0.0000E+00  0.0000E+00  0.0000E+00
    -39.010  0.0000E+00  0.0000E+00  0.0000E+00  0.0000E+00  0.0000E+00  0.0000E+00  0.0000E+00  0.0000E+00  0.0000E+00
    -38.803  0.0000E+00  0.0000E+00  0.0000E+00  0.0000E+00  0.0000E+00  0.0000E+00  0.0000E+00  0.0000E+00  0.0000E+00
    -38.595  0.0000E+00  0.0000E+00  0.0000E+00  0.0000E+00  0.0000E+00  0.0000E+00  0.0000E+00  0.0000E+00  0.0000E+00
    -38.388  0.0000E+00  0.0000E+00  0.0000E+00  0.0000E+00  0.0000E+00  0.0000E+00  0.0000E+00  0.0000E+00  0.0000E+00
    -38.180  0.0000E+00  0.0000E+00  0.0000E+00  0.0000E+00  0.0000E+00  0.0000E+00  0.0000E+00  0.0000E+00  0.0000E+00
    -37.973  0.0000E+00  0.0000E+00  0.0000E+00  0.0000E+00  0.0000E+00  0.0000E+00  0.0000E+00  0.0000E+00  0.0000E+00
    -37.765  0.0000E+00  0.0000E+00  0.0000E+00  0.0000E+00  0.0000E+00  0.0000E+00  0.0000E+00  0.0000E+00  0.0000E+00
    -37.558  0.0000E+00  0.0000E+00  0.0000E+00  0.0000E+00  0.0000E+00  0.0000E+00  0.0000E+00  0.0000E+00  0.0000E+00
    -37.351  0.0000E+00  0.0000E+00  0.0000E+00  0.0000E+00  0.0000E+00  0.0000E+00  0.0000E+00  0.0000E+00  0.0000E+00
    -37.143  0.0000E+00  0.0000E+00  0.0000E+00  0.0000E+00  0.0000E+00  0.0000E+00  0.0000E+00  0.0000E+00  0.0000E+00
    -36.936  0.0000E+00  0.0000E+00  0.0000E+00  0.0000E+00  0.0000E+00  0.0000E+00  0.0000E+00  0.0000E+00  0.0000E+00
    -36.728  0.0000E+00  0.0000E+00  0.0000E+00  0.0000E+00  0.0000E+00  0.0000E+00  0.0000E+00  0.0000E+00  0.0000E+00
    -36.521  0.0000E+00  0.0000E+00  0.0000E+00  0.0000E+00  0.0000E+00  0.0000E+00  0.0000E+00  0.0000E+00  0.0000E+00
    -36.313  0.0000E+00  0.0000E+00  0.0000E+00  0.0000E+00  0.0000E+00  0.0000E+00  0.0000E+00  0.0000E+00  0.0000E+00
    -36.106  0.0000E+00  0.0000E+00  0.0000E+00  0.0000E+00  0.0000E+00  0.0000E+00  0.0000E+00  0.0000E+00  0.0000E+00
    -35.898  0.0000E+00  0.0000E+00  0.0000E+00  0.0000E+00  0.0000E+00  0.0000E+00  0.0000E+00  0.0000E+00  0.0000E+00
    -35.691  0.0000E+00  0.0000E+00  0.0000E+00  0.0000E+00  0.0000E+00  0.0000E+00  0.0000E+00  0.0000E+00  0.0000E+00
    -35.483  0.0000E+00  0.0000E+00  0.0000E+00  0.0000E+00  0.0000E+00  0.0000E+00  0.0000E+00  0.0000E+00  0.0000E+00
    -35.276  0.0000E+00  0.0000E+00  0.0000E+00  0.0000E+00  0.0000E+00  0.0000E+00  0.0000E+00  0.0000E+00  0.0000E+00
    -35.068  0.0000E+00  0.0000E+00  0.0000E+00  0.0000E+00  0.0000E+00  0.0000E+00  0.0000E+00  0.0000E+00  0.0000E+00
    -34.861  0.0000E+00  0.0000E+00  0.0000E+00  0.0000E+00  0.0000E+00  0.0000E+00  0.0000E+00  0.0000E+00  0.0000E+00
    -34.653  0.0000E+00  0.0000E+00  0.0000E+00  0.0000E+00  0.0000E+00  0.0000E+00  0.0000E+00  0.0000E+00  0.0000E+00
    -34.446  0.0000E+00  0.0000E+00  0.0000E+00  0.0000E+00  0.0000E+00  0.0000E+00  0.0000E+00  0.0000E+00  0.0000E+00
    -34.238  0.0000E+00  0.0000E+00  0.0000E+00  0.0000E+00  0.0000E+00  0.0000E+00  0.0000E+00  0.0000E+00  0.0000E+00
    -34.031  0.0000E+00  0.0000E+00  0.0000E+00  0.0000E+00  0.0000E+00  0.0000E+00  0.0000E+00  0.0000E+00  0.0000E+00
    -33.823  0.0000E+00  0.0000E+00  0.0000E+00  0.0000E+00  0.0000E+00  0.0000E+00  0.0000E+00  0.0000E+00  0.0000E+00
    -33.616  0.0000E+00  0.0000E+00  0.0000E+00  0.0000E+00  0.0000E+00  0.0000E+00  0.0000E+00  0.0000E+00  0.0000E+00
    -33.408  0.0000E+00  0.0000E+00  0.0000E+00  0.0000E+00  0.0000E+00  0.0000E+00  0.0000E+00  0.0000E+00  0.0000E+00
    -33.201  0.0000E+00  0.0000E+00  0.0000E+00  0.0000E+00  0.0000E+00  0.0000E+00  0.0000E+00  0.0000E+00  0.0000E+00
    -32.993  0.0000E+00  0.0000E+00  0.0000E+00  0.0000E+00  0.0000E+00  0.0000E+00  0.0000E+00  0.0000E+00  0.0000E+00
    -32.786  0.0000E+00  0.0000E+00  0.0000E+00  0.0000E+00  0.0000E+00  0.0000E+00  0.0000E+00  0.0000E+00  0.0000E+00
    -32.578  0.0000E+00  0.0000E+00  0.0000E+00  0.0000E+00  0.0000E+00  0.0000E+00  0.0000E+00  0.0000E+00  0.0000E+00
    -32.371  0.0000E+00  0.0000E+00  0.0000E+00  0.0000E+00  0.0000E+00  0.0000E+00  0.0000E+00  0.0000E+00  0.0000E+00
    -32.163  0.0000E+00  0.0000E+00  0.0000E+00  0.0000E+00  0.0000E+00  0.0000E+00  0.0000E+00  0.0000E+00  0.0000E+00
    -31.956  0.0000E+00  0.0000E+00  0.0000E+00  0.0000E+00  0.0000E+00  0.0000E+00  0.0000E+00  0.0000E+00  0.0000E+00
    -31.749  0.0000E+00  0.0000E+00  0.0000E+00  0.0000E+00  0.0000E+00  0.0000E+00  0.0000E+00  0.0000E+00  0.0000E+00
    -31.541  0.0000E+00  0.0000E+00  0.0000E+00  0.0000E+00  0.0000E+00  0.0000E+00  0.0000E+00  0.0000E+00  0.0000E+00
    -31.334  0.0000E+00  0.0000E+00  0.0000E+00  0.0000E+00  0.0000E+00  0.0000E+00  0.0000E+00  0.0000E+00  0.0000E+00
    -31.126  0.0000E+00  0.0000E+00  0.0000E+00  0.0000E+00  0.0000E+00  0.0000E+00  0.0000E+00  0.0000E+00  0.0000E+00
    -30.919  0.0000E+00  0.0000E+00  0.0000E+00  0.0000E+00  0.0000E+00  0.0000E+00  0.0000E+00  0.0000E+00  0.0000E+00
    -30.711  0.0000E+00  0.0000E+00  0.0000E+00  0.0000E+00  0.0000E+00  0.0000E+00  0.0000E+00  0.0000E+00  0.0000E+00
    -30.504  0.0000E+00  0.0000E+00  0.0000E+00  0.0000E+00  0.0000E+00  0.0000E+00  0.0000E+00  0.0000E+00  0.0000E+00
    -30.296  0.0000E+00  0.0000E+00  0.0000E+00  0.0000E+00  0.0000E+00  0.0000E+00  0.0000E+00  0.0000E+00  0.0000E+00
    -30.089  0.0000E+00  0.0000E+00  0.0000E+00  0.0000E+00  0.0000E+00  0.0000E+00  0.0000E+00  0.0000E+00  0.0000E+00
    -29.881  0.0000E+00  0.0000E+00  0.0000E+00  0.0000E+00  0.0000E+00  0.0000E+00  0.0000E+00  0.0000E+00  0.0000E+00
    -29.674  0.0000E+00  0.0000E+00  0.0000E+00  0.0000E+00  0.0000E+00  0.0000E+00  0.0000E+00  0.0000E+00  0.0000E+00
    -29.466  0.0000E+00  0.0000E+00  0.0000E+00  0.0000E+00  0.0000E+00  0.0000E+00  0.0000E+00  0.0000E+00  0.0000E+00
    -29.259  0.0000E+00  0.0000E+00  0.0000E+00  0.0000E+00  0.0000E+00  0.0000E+00  0.0000E+00  0.0000E+00  0.0000E+00
    -29.051  0.0000E+00  0.0000E+00  0.0000E+00  0.0000E+00  0.0000E+00  0.0000E+00  0.0000E+00  0.0000E+00  0.0000E+00
    -28.844  0.0000E+00  0.0000E+00  0.0000E+00  0.0000E+00  0.0000E+00  0.0000E+00  0.0000E+00  0.0000E+00  0.0000E+00
    -28.636  0.0000E+00  0.0000E+00  0.0000E+00  0.0000E+00  0.0000E+00  0.0000E+00  0.0000E+00  0.0000E+00  0.0000E+00
    -28.429  0.0000E+00  0.0000E+00  0.0000E+00  0.0000E+00  0.0000E+00  0.0000E+00  0.0000E+00  0.0000E+00  0.0000E+00
    -28.221  0.0000E+00  0.0000E+00  0.0000E+00  0.0000E+00  0.0000E+00  0.0000E+00  0.0000E+00  0.0000E+00  0.0000E+00
    -28.014  0.0000E+00  0.0000E+00  0.0000E+00  0.0000E+00  0.0000E+00  0.0000E+00  0.0000E+00  0.0000E+00  0.0000E+00
    -27.806  0.0000E+00  0.0000E+00  0.0000E+00  0.0000E+00  0.0000E+00  0.0000E+00  0.0000E+00  0.0000E+00  0.0000E+00
    -27.599  0.0000E+00  0.0000E+00  0.0000E+00  0.0000E+00  0.0000E+00  0.0000E+00  0.0000E+00  0.0000E+00  0.0000E+00
    -27.391  0.0000E+00  0.0000E+00  0.0000E+00  0.0000E+00  0.0000E+00  0.0000E+00  0.0000E+00  0.0000E+00  0.0000E+00
    -27.184  0.5366E-18  0.2415E-19  0.2223E-19  0.3424E-19  0.0000E+00  0.0000E+00  0.0000E+00  0.0000E+00  0.0000E+00
    -26.976  0.4795E-07  0.1743E-08  0.1721E-08  0.3185E-08  0.0000E+00  0.0000E+00  0.0000E+00  0.0000E+00  0.0000E+00
    -26.769  0.5128E-06  0.1891E-07  0.1684E-07  0.3612E-07  0.0000E+00  0.0000E+00  0.0000E+00  0.0000E+00  0.0000E+00
    -26.561  0.3702E-06  0.2205E-07  0.1231E-07  0.1945E-07  0.0000E+00  0.0000E+00  0.0000E+00  0.0000E+00  0.0000E+00
    -26.354  0.3964E-06  0.1768E-07  0.2805E-07  0.1398E-07  0.0000E+00  0.0000E+00  0.0000E+00  0.0000E+00  0.0000E+00
    -26.146  0.2472E-07  0.8520E-09  0.2062E-08  0.8625E-09  0.0000E+00  0.0000E+00  0.0000E+00  0.0000E+00  0.0000E+00
    -25.939  0.0000E+00  0.0000E+00  0.0000E+00  0.0000E+00  0.0000E+00  0.0000E+00  0.0000E+00  0.0000E+00  0.0000E+00
    -25.732  0.0000E+00  0.0000E+00  0.0000E+00  0.0000E+00  0.0000E+00  0.0000E+00  0.0000E+00  0.0000E+00  0.0000E+00
    -25.524  0.0000E+00  0.0000E+00  0.0000E+00  0.0000E+00  0.0000E+00  0.0000E+00  0.0000E+00  0.0000E+00  0.0000E+00
    -25.317  0.0000E+00  0.0000E+00  0.0000E+00  0.0000E+00  0.0000E+00  0.0000E+00  0.0000E+00  0.0000E+00  0.0000E+00
    -25.109  0.0000E+00  0.0000E+00  0.0000E+00  0.0000E+00  0.0000E+00  0.0000E+00  0.0000E+00  0.0000E+00  0.0000E+00
    -24.902  0.0000E+00  0.0000E+00  0.0000E+00  0.0000E+00  0.0000E+00  0.0000E+00  0.0000E+00  0.0000E+00  0.0000E+00
    -24.694  0.0000E+00  0.0000E+00  0.0000E+00  0.0000E+00  0.0000E+00  0.0000E+00  0.0000E+00  0.0000E+00  0.0000E+00
    -24.487  0.0000E+00  0.0000E+00  0.0000E+00  0.0000E+00  0.0000E+00  0.0000E+00  0.0000E+00  0.0000E+00  0.0000E+00
    -24.279  0.0000E+00  0.0000E+00  0.0000E+00  0.0000E+00  0.0000E+00  0.0000E+00  0.0000E+00  0.0000E+00  0.0000E+00
    -24.072  0.0000E+00  0.0000E+00  0.0000E+00  0.0000E+00  0.0000E+00  0.0000E+00  0.0000E+00  0.0000E+00  0.0000E+00
    -23.864  0.0000E+00  0.0000E+00  0.0000E+00  0.0000E+00  0.0000E+00  0.0000E+00  0.0000E+00  0.0000E+00  0.0000E+00
    -23.657  0.0000E+00  0.0000E+00  0.0000E+00  0.0000E+00  0.0000E+00  0.0000E+00  0.0000E+00  0.0000E+00  0.0000E+00
    -23.449  0.0000E+00  0.0000E+00  0.0000E+00  0.0000E+00  0.0000E+00  0.0000E+00  0.0000E+00  0.0000E+00  0.0000E+00
    -23.242  0.0000E+00  0.0000E+00  0.0000E+00  0.0000E+00  0.0000E+00  0.0000E+00  0.0000E+00  0.0000E+00  0.0000E+00
    -23.034  0.0000E+00  0.0000E+00  0.0000E+00  0.0000E+00  0.0000E+00  0.0000E+00  0.0000E+00  0.0000E+00  0.0000E+00
    -22.827  0.0000E+00  0.0000E+00  0.0000E+00  0.0000E+00  0.0000E+00  0.0000E+00  0.0000E+00  0.0000E+00  0.0000E+00
    -22.619  0.0000E+00  0.0000E+00  0.0000E+00  0.0000E+00  0.0000E+00  0.0000E+00  0.0000E+00  0.0000E+00  0.0000E+00
    -22.412  0.0000E+00  0.0000E+00  0.0000E+00  0.0000E+00  0.0000E+00  0.0000E+00  0.0000E+00  0.0000E+00  0.0000E+00
    -22.204  0.0000E+00  0.0000E+00  0.0000E+00  0.0000E+00  0.0000E+00  0.0000E+00  0.0000E+00  0.0000E+00  0.0000E+00
    -21.997  0.0000E+00  0.0000E+00  0.0000E+00  0.0000E+00  0.0000E+00  0.0000E+00  0.0000E+00  0.0000E+00  0.0000E+00
    -21.789  0.0000E+00  0.0000E+00  0.0000E+00  0.0000E+00  0.0000E+00  0.0000E+00  0.0000E+00  0.0000E+00  0.0000E+00
    -21.582  0.0000E+00  0.0000E+00  0.0000E+00  0.0000E+00  0.0000E+00  0.0000E+00  0.0000E+00  0.0000E+00  0.0000E+00
    -21.374  0.0000E+00  0.0000E+00  0.0000E+00  0.0000E+00  0.0000E+00  0.0000E+00  0.0000E+00  0.0000E+00  0.0000E+00
    -21.167  0.0000E+00  0.0000E+00  0.0000E+00  0.0000E+00  0.0000E+00  0.0000E+00  0.0000E+00  0.0000E+00  0.0000E+00
    -20.959  0.0000E+00  0.0000E+00  0.0000E+00  0.0000E+00  0.0000E+00  0.0000E+00  0.0000E+00  0.0000E+00  0.0000E+00
    -20.752  0.0000E+00  0.0000E+00  0.0000E+00  0.0000E+00  0.0000E+00  0.0000E+00  0.0000E+00  0.0000E+00  0.0000E+00
    -20.544  0.0000E+00  0.0000E+00  0.0000E+00  0.0000E+00  0.0000E+00  0.0000E+00  0.0000E+00  0.0000E+00  0.0000E+00
    -20.337  0.0000E+00  0.0000E+00  0.0000E+00  0.0000E+00  0.0000E+00  0.0000E+00  0.0000E+00  0.0000E+00  0.0000E+00
    -20.130  0.0000E+00  0.0000E+00  0.0000E+00  0.0000E+00  0.0000E+00  0.0000E+00  0.0000E+00  0.0000E+00  0.0000E+00
    -19.922  0.0000E+00  0.0000E+00  0.0000E+00  0.0000E+00  0.0000E+00  0.0000E+00  0.0000E+00  0.0000E+00  0.0000E+00
    -19.715  0.0000E+00  0.0000E+00  0.0000E+00  0.0000E+00  0.0000E+00  0.0000E+00  0.0000E+00  0.0000E+00  0.0000E+00
    -19.507  0.0000E+00  0.0000E+00  0.0000E+00  0.0000E+00  0.0000E+00  0.0000E+00  0.0000E+00  0.0000E+00  0.0000E+00
    -19.300  0.0000E+00  0.0000E+00  0.0000E+00  0.0000E+00  0.0000E+00  0.0000E+00  0.0000E+00  0.0000E+00  0.0000E+00
    -19.092  0.0000E+00  0.0000E+00  0.0000E+00  0.0000E+00  0.0000E+00  0.0000E+00  0.0000E+00  0.0000E+00  0.0000E+00
    -18.885  0.0000E+00  0.0000E+00  0.0000E+00  0.0000E+00  0.0000E+00  0.0000E+00  0.0000E+00  0.0000E+00  0.0000E+00
    -18.677  0.0000E+00  0.0000E+00  0.0000E+00  0.0000E+00  0.0000E+00  0.0000E+00  0.0000E+00  0.0000E+00  0.0000E+00