********************************************************************************
*                       GENERAL UTILITY LATTICE PROGRAM                        *
*                                 Julian Gale                                  *
*                       Curtin Institute for Computation                       *
*                    School of Molecular and Life Sciences                     *
*                    Curtin University, Western Australia                      *
********************************************************************************
* Version = 5.2.0 * Last modified =  10th September 2020                       *
********************************************************************************
*  optimise     - perform optimisation run                                     *
*  conp         - constant pressure calculation                                *
*  property     - calculate properties for final geometry                      *
*  defect       - perform defect calculation after bulk run                    *
*  compare      - compare initial and final structures                         *
********************************************************************************

  Job Started  at 11:32.55 18th August     2021                               

  Number of CPUs =     1


  Total number of configurations input =      1

********************************************************************************
*  Input for Configuration =   1                                               *
********************************************************************************

  Formula = Sc2Cl6                                                      

  Number of irreducible atoms/shells =       3


  Total number atoms/shells =      14

  Dimensionality = 3               :  Bulk   


  Symmetry :

  Crystal family                   :  Hexagonal   
  Crystal class  (Groth - 1921)    :  Trigonal Rhombohedral                

  Space group (centrosymmetric)    :  R -3            

  Patterson group                  :  R -3     

  Cartesian lattice vectors (Angstroms) :

        3.246588    1.874418    6.441540
       -3.246588    1.874418    6.441540
        0.000000   -3.748837    6.441540

  Cell parameters (Angstroms/Degrees):

  a =       7.4530    alpha =  51.6480
  b =       7.4530    beta  =  51.6480
  c =       7.4530    gamma =  51.6480

  Initial cell volume =         235.198534 Angs**3

  Temperature of configuration =   0.00     K 

  Pressure of configuration =         0.000 GPa 

  Fractional coordinates of asymmetric unit :

--------------------------------------------------------------------------------
   No.  Atomic       x           y          z         Charge      Occupancy
        Label      (Frac)      (Frac)     (Frac)        (e)         (Frac)  
--------------------------------------------------------------------------------
      1 Sc    c    0.333900    0.333900    0.333900 *   3.00000    1.000000    
      2 Cl    c    0.073700 *  0.443900 *  0.705300 *   1.48500    1.000000    
      3 Cl    s    0.073700 *  0.443900 *  0.705300 *  -2.48500    1.000000    
--------------------------------------------------------------------------------


  Constraints : 

--------------------------------------------------------------------------------
  Constraint no.      Unconstrained     Constrained    Coefficient    Offset
                         Variable         Variable
--------------------------------------------------------------------------------
           1              Strain 1        Strain 2       1.00000      0.0000
--------------------------------------------------------------------------------


********************************************************************************
*  General input information                                                   *
********************************************************************************

  Species output for all configurations : 

--------------------------------------------------------------------------------
  Species    Type    Atomic    Atomic    Charge       Radii (Angs)     Library
                     Number     Mass       (e)     Cova   Ionic  VDW   Symbol
--------------------------------------------------------------------------------
    Sc       Core       21      44.96   3.000000   1.440  0.000  2.150          
    Cl       Core       17      35.45   1.485000   0.990  0.000  1.650          
    Cl       Shell      17       0.00  -2.485000   0.990  0.000  1.650          
--------------------------------------------------------------------------------


  Lattice summation method               =    Ewald          (3-D)
                                         =    Parry          (2-D)
                                         =    Saunders et al (1-D)
  Accuracy factor for lattice sums       =   12.000


  Analytic derivatives to be used

  Time limit = Infinity

  Maximum range for interatomic potentials =    100000.000000 Angstroms

  General interatomic potentials :

--------------------------------------------------------------------------------
Atom  Types   Potential      Parameter       Value         Units   Cutoffs(Ang)
  1     2                                                            Min /  Max 
--------------------------------------------------------------------------------
Cl   c Cl   s Spring (c-s)  Spring k 2       29.380000    eV*Ang^-2 0.000  0.800
                            Spring k 4       0.0000000    eV*Ang^-4 
--------------------------------------------------------------------------------
Sc   c Cl   s Buckingham    Buckingham A     12131.350    eV        0.000 12.000
                            Buckingham rho  0.25070000    Ang       
                            Buckingham C     0.0000000    eV*Ang^6  
--------------------------------------------------------------------------------
Cl   s Cl   s Buckingham    Buckingham A     1227.2000    eV        0.000 12.000
                            Buckingham rho  0.32100000    Ang       
                            Buckingham C     14.530000    eV*Ang^6  
--------------------------------------------------------------------------------

********************************************************************************
*  Output for configuration   1                                                *
********************************************************************************


  Components of energy : 

--------------------------------------------------------------------------------
  Interatomic potentials     =           6.77737779 eV    
  Monopole - monopole (real) =         -30.86300284 eV    
  Monopole - monopole (recip)=         -65.52201623 eV    
  Monopole - monopole (total)=         -96.38501907 eV    
--------------------------------------------------------------------------------
  Total lattice energy : 
    Primitive unit cell      =         -89.60764128 eV    
    Non-primitive unit cell  =        -268.82292384 eV    
--------------------------------------------------------------------------------
  Total lattice energy (in kJmol-1): 
    Primitive unit cell      =           -8645.7676 kJ/(mole unit cells)
    Non-primitive unit cell  =          -25937.3028 kJ/(mole unit cells)
--------------------------------------------------------------------------------


  Number of variables =        9

  Maximum number of calculations  =          1000
  Maximum Hessian update interval =            10
  Maximum step size               =   1.000000000
  Maximum parameter tolerance     =   0.000010000
  Maximum function  tolerance     =   0.000010000
  Maximum gradient  tolerance     =   0.001000000
  Maximum gradient  component     =   0.010000000

  Symmetry constrained optimisation

  Symmetry used for second derivatives

  Cell parameters to be optimised using strains

  Newton-Raphson optimiser to be used

  BFGS hessian update to be used

  Lower half triangular hessian to be used

  Start of bulk optimisation :

  Cycle:      0 Energy:       -89.607641  Gnorm:    194.660938  CPU:    0.009
  ** Hessian calculated **
  Cycle:      1 Energy:       -99.336245  Gnorm:     16.922396  CPU:    0.018
  Cycle:      2 Energy:       -99.561570  Gnorm:      7.561347  CPU:    0.028
  Cycle:      3 Energy:       -99.729576  Gnorm:      4.412393  CPU:    0.038
  Cycle:      4 Energy:       -99.829400  Gnorm:      2.218678  CPU:    0.049
  Cycle:      5 Energy:       -99.844572  Gnorm:      0.723795  CPU:    0.058
  Cycle:      6 Energy:       -99.846381  Gnorm:      0.448826  CPU:    0.068
  Cycle:      7 Energy:       -99.846853  Gnorm:      0.344817  CPU:    0.077
  Cycle:      8 Energy:       -99.849123  Gnorm:      0.319075  CPU:    0.092
  Cycle:      9 Energy:       -99.851112  Gnorm:      0.253552  CPU:    0.105
  Cycle:     10 Energy:       -99.852597  Gnorm:      0.161985  CPU:    0.118
  ** Hessian calculated **
  Cycle:     11 Energy:       -99.854095  Gnorm:      0.114649  CPU:    0.135
  Cycle:     12 Energy:       -99.855517  Gnorm:      0.062367  CPU:    0.148
  Cycle:     13 Energy:       -99.856271  Gnorm:      0.091299  CPU:    0.159
  Cycle:     14 Energy:       -99.856398  Gnorm:      0.057833  CPU:    0.172
  Cycle:     15 Energy:       -99.709969  Gnorm:      9.382415  CPU:    0.208
  ** Hessian calculated **
  Cycle:     16 Energy:       -99.834592  Gnorm:      3.493936  CPU:    0.224
  Cycle:     17 Energy:       -99.855984  Gnorm:      0.183406  CPU:    0.233
  Cycle:     18 Energy:       -99.856377  Gnorm:      0.024886  CPU:    0.244
  ** Hessian calculated **
  Cycle:     19 Energy:       -99.856378  Gnorm:      0.010051  CPU:    0.255
  Cycle:     20 Energy:       -99.856379  Gnorm:      0.013393  CPU:    0.263
  Cycle:     21 Energy:       -99.856379  Gnorm:      0.009613  CPU:    0.272
  Cycle:     22 Energy:       -99.856380  Gnorm:      0.011718  CPU:    0.281
  Cycle:     23 Energy:       -99.856381  Gnorm:      0.013744  CPU:    0.290
  Cycle:     24 Energy:       -99.856381  Gnorm:      0.012669  CPU:    0.297
  Cycle:     25 Energy:       -99.856382  Gnorm:      0.013916  CPU:    0.306
  Cycle:     26 Energy:       -99.856383  Gnorm:      0.012516  CPU:    0.315
  Cycle:     27 Energy:       -99.856383  Gnorm:      0.006850  CPU:    0.323
  Cycle:     28 Energy:       -99.856383  Gnorm:      0.005130  CPU:    0.332
  ** Hessian calculated **
  Cycle:     29 Energy:       -99.856383  Gnorm:      0.005098  CPU:    0.344
  Cycle:     30 Energy:       -99.856383  Gnorm:      0.005050  CPU:    0.353
  Cycle:     31 Energy:       -99.856384  Gnorm:      0.004978  CPU:    0.361
  Cycle:     32 Energy:       -99.856384  Gnorm:      0.004870  CPU:    0.370
  Cycle:     33 Energy:       -99.856385  Gnorm:      0.004708  CPU:    0.379
  Cycle:     34 Energy:       -99.856385  Gnorm:      0.004465  CPU:    0.387
  Cycle:     35 Energy:       -99.856387  Gnorm:      0.004100  CPU:    0.396
  Cycle:     36 Energy:       -99.856389  Gnorm:      0.003183  CPU:    0.406
  Cycle:     37 Energy:       -99.856390  Gnorm:      0.002732  CPU:    0.417
  Cycle:     38 Energy:       -99.856390  Gnorm:      0.002622  CPU:    0.428
  ** Hessian calculated **
  Cycle:     39 Energy:       -99.856390  Gnorm:      0.002617  CPU:    0.448
  Cycle:     40 Energy:       -99.856390  Gnorm:      0.002611  CPU:    0.463
  Cycle:     41 Energy:       -99.856390  Gnorm:      0.002596  CPU:    0.561
  Cycle:     42 Energy:       -99.856390  Gnorm:      0.002573  CPU:    0.589
  Cycle:     43 Energy:       -99.856391  Gnorm:      0.002556  CPU:    0.615
  Cycle:     44 Energy:       -99.856391  Gnorm:      0.002551  CPU:    0.628
  Cycle:     45 Energy:       -99.856376  Gnorm:      0.010367  CPU:    0.667
  ** Hessian calculated **
  Cycle:     46 Energy:       -99.856376  Gnorm:      0.003162  CPU:    0.684
  Cycle:     47 Energy:       -99.856376  Gnorm:      0.004154  CPU:    0.697
  Cycle:     48 Energy:       -99.856376  Gnorm:      0.004258  CPU:    0.710
  Cycle:     49 Energy:       -99.856376  Gnorm:      0.003063  CPU:    0.723
  Cycle:     50 Energy:       -99.856376  Gnorm:      0.003213  CPU:    0.736
  Cycle:     51 Energy:       -99.856376  Gnorm:      0.002448  CPU:    0.749
  Cycle:     52 Energy:       -99.856376  Gnorm:      0.002432  CPU:    0.761
  Cycle:     53 Energy:       -99.856376  Gnorm:      0.002202  CPU:    0.774
  Cycle:     54 Energy:       -99.856376  Gnorm:      0.003030  CPU:    0.787
  Cycle:     55 Energy:       -99.856377  Gnorm:      0.003988  CPU:    0.800
  ** Hessian calculated **
  Cycle:     56 Energy:       -99.856377  Gnorm:      0.003870  CPU:    0.818
  Cycle:     57 Energy:       -99.856377  Gnorm:      0.003694  CPU:    0.830
  Cycle:     58 Energy:       -99.856377  Gnorm:      0.003429  CPU:    0.843
  Cycle:     59 Energy:       -99.856377  Gnorm:      0.003032  CPU:    0.856
  Cycle:     60 Energy:       -99.856378  Gnorm:      0.002436  CPU:    0.869
  Cycle:     61 Energy:       -99.856378  Gnorm:      0.001545  CPU:    0.882


  **** Optimisation achieved ****


  Final energy =     -99.85637867 eV
  Final Gnorm  =       0.00022970

  Components of energy : 

--------------------------------------------------------------------------------
  Interatomic potentials     =          20.55356182 eV    
  Monopole - monopole (real) =          80.99460097 eV    
  Monopole - monopole (recip)=        -201.40454146 eV    
  Monopole - monopole (total)=        -120.40994049 eV    
--------------------------------------------------------------------------------
  Total lattice energy : 
    Primitive unit cell      =         -99.85637867 eV    
    Non-primitive unit cell  =        -299.56913600 eV    
--------------------------------------------------------------------------------
  Total lattice energy (in kJmol-1): 
    Primitive unit cell      =           -9634.6141 kJ/(mole unit cells)
    Non-primitive unit cell  =          -28903.8423 kJ/(mole unit cells)
--------------------------------------------------------------------------------

  Final asymmetric unit coordinates :

--------------------------------------------------------------------------------
   No.  Atomic        x           y           z         Radius
        Label       (Frac)      (Frac)      (Frac)       (Angs) 
--------------------------------------------------------------------------------
     1  Sc    c     0.333302    0.333302    0.333302    0.000000
     2  Cl    c     0.077345    0.440528    0.713912    0.000000
     3  Cl    s     0.065297    0.450169    0.680282    0.000000
--------------------------------------------------------------------------------

  Final Cartesian lattice vectors (Angstroms) :

        3.146819    1.816817    6.452887
       -3.146819    1.816817    6.452887
        0.000000   -3.633633    6.452887


  Final cell parameters and derivatives :

--------------------------------------------------------------------------------
       a            7.405608 Angstrom     dE/de1(xx)    -0.000123 eV/strain
       b            7.405608 Angstrom     dE/de2(yy)     0.000000 eV/strain
       c            7.405608 Angstrom     dE/de3(zz)    -0.000049 eV/strain
       alpha       50.291669 Degrees      dE/de4(yz)     0.000000 eV/strain
       beta        50.291669 Degrees      dE/de5(xz)     0.000000 eV/strain
       gamma       50.291669 Degrees      dE/de6(xy)     0.000000 eV/strain
--------------------------------------------------------------------------------

  Primitive cell volume =           221.354351 Angs**3

  Density of cell =      2.270208 g/cm**3

  Non-primitive lattice parameters :

  a    =     6.293637  b   =     6.293637  c    =    19.358660
  alpha=    90.000000  beta=    90.000000  gamma=   120.000000

  Non-primitive cell volume =           664.063053 Angs**3


  Final internal derivatives :

--------------------------------------------------------------------------------
   No.  Atomic          a             b             c           Radius
        Label          (eV)          (eV)          (eV)        (eV/Angs)
--------------------------------------------------------------------------------
      1 Sc    c       0.000000      0.000000      0.000333      0.000000
      2 Cl    c      -0.000512      0.000026      0.001871      0.000000
      3 Cl    s      -0.000302      0.000461     -0.000278      0.000000
--------------------------------------------------------------------------------
  Maximum abs         0.000512      0.000461      0.001871      0.000000
--------------------------------------------------------------------------------

  Comparison of initial and final structures : 

--------------------------------------------------------------------------------
  Parameter   Initial value   Final value   Difference    Units      Percent
--------------------------------------------------------------------------------
    Volume       705.595603    664.063053   -41.532550    Angs**3     -5.89
    a              6.493176      6.293637    -0.199538    Angstroms   -3.07
    b              6.493176      6.293637    -0.199538    Angstroms   -3.07
    c             19.324619     19.358660     0.034041    Angstroms    0.18
    alpha         90.000000     90.000000     0.000000    Degrees      0.00
    beta          90.000000     90.000000     0.000000    Degrees      0.00
    gamma        120.000000    120.000000     0.000000    Degrees      0.00
      1 x          0.000000      0.000000     0.000000    Fractional   0.00
      1 y          0.000000      0.000000     0.000000    Fractional   0.00
      1 z          0.333900      0.333302     0.000598    Fractional   0.18
      2 x          0.666067      0.666750     0.000683    Fractional   0.10
      2 y          0.702333      0.696683     0.005650    Fractional   0.80
      2 z          0.407633      0.410595     0.002962    Fractional   0.73
      3 x          0.666067      0.666715     0.000648    Fractional   0.10
      3 y          0.702333      0.718301     0.015968    Fractional   2.27
      3 z          0.407633      0.398583     0.009051    Fractional   2.22
--------------------------------------------------------------------------------


  Born effective charge tensors : 

-------------------------------------------------------------------------------
  Atom             x           y             z
-------------------------------------------------------------------------------
    1 Sc    x       1.8547     -0.0008      0.0000
            y       0.0008      1.8547      0.0000
            z       0.0000      0.0000      1.3341
-------------------------------------------------------------------------------
    2 Cl    x      -0.6622     -0.0739     -0.0054
            y      -0.0744     -0.5743      0.0077
            z      -0.0118      0.0242     -0.4447
-------------------------------------------------------------------------------




  Elastic Constant Matrix: (Units=GPa)

-------------------------------------------------------------------------------
  Indices      1         2         3         4         5         6    
-------------------------------------------------------------------------------
       1     59.0042   36.7253    0.0676   -0.0391    0.0164    0.0000
       2     36.7253   59.0042    0.0676    0.0391   -0.0164   -0.0000
       3      0.0676    0.0676    1.3662   -0.0000   -0.0000    0.0000
       4     -0.0391    0.0391   -0.0000    0.1362   -0.0000   -0.0164
       5      0.0164   -0.0164   -0.0000   -0.0000    0.1362   -0.0391
       6      0.0000   -0.0000    0.0000   -0.0164   -0.0391   11.1394
-------------------------------------------------------------------------------


  Elastic Compliance Matrix: (Units=1/GPa)

-------------------------------------------------------------------------------
  Indices      1         2         3         4         5         6    
-------------------------------------------------------------------------------
       1    0.027693 -0.017246 -0.000517  0.012917 -0.005403 -0.000000
       2   -0.017246  0.027693 -0.000517 -0.012917  0.005403  0.000000
       3   -0.000517 -0.000517  0.731998 -0.000000  0.000000 -0.000000
       4    0.012917 -0.012917 -0.000000  7.352608  0.000000  0.010807
       5   -0.005403  0.005403  0.000000  0.000000  7.352608  0.025834
       6   -0.000000  0.000000 -0.000000  0.010807  0.025834  0.089878
-------------------------------------------------------------------------------

  Mechanical properties :

-------------------------------------------------------------------------------
  Convention :                    Reuss         Voigt         Hill
-------------------------------------------------------------------------------
  Bulk  Modulus (GPa)     =       1.33187      21.45510      11.39349
  Shear Modulus (GPa)     =       0.31507       7.78329       4.04918
-------------------------------------------------------------------------------
  Velocity S-wave (km/s)  =       0.37254       1.85161       1.33552
  Velocity P-wave (km/s)  =       0.87848       3.74459       2.71972
-------------------------------------------------------------------------------
  Compressibility (1/GPa) =    0.75082247
-------------------------------------------------------------------------------
  Stress axis :                     x             y             z
-------------------------------------------------------------------------------
  Youngs Moduli (GPa)     =      36.11042      36.11042       1.36612
-------------------------------------------------------------------------------
  Poissons Ratio (x)      =                     0.62276       0.00071
  Poissons Ratio (y)      =       0.62276                     0.00071
  Poissons Ratio (z)      =       0.01868       0.01868
-------------------------------------------------------------------------------


  Piezoelectric Strain Matrix: (Units=C/m**2)

-------------------------------------------------------------------------------
  Indices      1         2         3         4         5         6    
-------------------------------------------------------------------------------
       x    -0.00000  -0.00000  -0.00000  -0.00000  -0.00000  -0.00000
       y     0.00000  -0.00000   0.00000   0.00000   0.00000  -0.00000
       z    -0.00000   0.00000  -0.00000   0.00000  -0.00000  -0.00000
-------------------------------------------------------------------------------


  Piezoelectric Stress Matrix: (Units=10**-11 C/N)

-------------------------------------------------------------------------------
  Indices      1         2         3         4         5         6    
-------------------------------------------------------------------------------
       x    -0.00000  -0.00000  -0.00000  -0.00000  -0.00000  -0.00000
       y     0.00000  -0.00000   0.00000   0.00000   0.00000  -0.00000
       z    -0.00000   0.00000  -0.00000   0.00000  -0.00000  -0.00000
-------------------------------------------------------------------------------


  Static dielectric constant tensor : 

-------------------------------------------------------------------------------
              x         y         z
-------------------------------------------------------------------------------
       x     2.69429  -0.00000   0.00000
       y    -0.00000   2.69429   0.00000
       z     0.00000   0.00000   2.22327
--------------------------------------------------------------------------------

  High frequency dielectric constant tensor : 

-------------------------------------------------------------------------------
              x         y         z
-------------------------------------------------------------------------------
       x     2.11991  -0.00000   0.00000
       y    -0.00000   2.11991   0.00000
       z     0.00000   0.00000   1.97865
-------------------------------------------------------------------------------

  Static refractive indices : 

-------------------------------------------------------------------------------
    1 =    1.49106      2 =    1.64143      3 =    1.64143
-------------------------------------------------------------------------------

  High frequency refractive indices : 

-------------------------------------------------------------------------------
    1 =    1.40664      2 =    1.45599      3 =    1.45599
-------------------------------------------------------------------------------


  Time to end of optimisation =       0.9201 seconds

********************************************************************************
*  Defect calculation for configuration   1 :                                  *
********************************************************************************



!!!!!!!!!!!!!!!!!!!!!!!!!!!!!!!!!!!!!!!!!!!!!!!!!!!!!!!!!!!!!!!!!!!!!!!!!!!!!!!!
!! WARNING : Ambiguous vacancy specifier used
!!!!!!!!!!!!!!!!!!!!!!!!!!!!!!!!!!!!!!!!!!!!!!!!!!!!!!!!!!!!!!!!!!!!!!!!!!!!!!!!



!!!!!!!!!!!!!!!!!!!!!!!!!!!!!!!!!!!!!!!!!!!!!!!!!!!!!!!!!!!!!!!!!!!!!!!!!!!!!!!!
!! WARNING : Ambiguous vacancy specifier used
!!!!!!!!!!!!!!!!!!!!!!!!!!!!!!!!!!!!!!!!!!!!!!!!!!!!!!!!!!!!!!!!!!!!!!!!!!!!!!!!

  Total number of defects =      2

  Total charge on defect  =   1.00

  Defect centre is at   0.0737   0.4439   0.7053  Frac

  Region 1 radius =  10.0000      Number of ions =    288

  Region 2 radius =  24.0000      Number of ions =   3375

  Region 2a mode = 4 : screened electrostatics due to region 1 
                       neglect correction to region 1 forces from 2a
                       region 2a displacements based on defects only

  Region 2a ions will only interact with defects in region 1

  Vacancies:

--------------------------------------------------------------------------------
    Specification type     Symbol/Number         x          y          z
--------------------------------------------------------------------------------
    Atom                    Cl    core
    Atom                    Cl    shel
--------------------------------------------------------------------------------


  Components of defect energy : 

--------------------------------------------------------------------------------
  Region 1 - region 1                   =      3.87690604 eV
  Region 1 - region 2a (unrelaxed)      =      6.40719854 eV
  Region 1 - 2a (relaxed - correction)  =     -0.48061663 eV
  Region 1 (Total)                      =      9.80348794 eV
  Region 2a                             =      0.24036075 eV
  Region 2b                             =     -0.18241543 eV
--------------------------------------------------------------------------------
  Total defect energy                   =      9.86143326 eV
--------------------------------------------------------------------------------

  Largest displacement in region 2 =   0.0158 Angstroms


  Number of variables =      864

  Maximum number of calculations  =        1000
  Maximum Hessian update interval =          10
  Maximum step size               =   1.0000000
  Maximum parameter tolerance     =   0.0000100
  Maximum function  tolerance     =   0.0000100
  Maximum gradient  tolerance     =   0.0010000

  Symmetry adapted optimisation

  Newton-Raphson optimiser to be used

  BFGS hessian update to be used

  Lower half triangular hessian to be used

  Start of defect optimisation :

  Cycle:      0 Defect Energy:   9.861433  Gnorm:     0.019947  CPU:    3.938
  ** Hessian calculated **
  Cycle:      1 Defect Energy:   8.656842  Gnorm:     0.015176  CPU:   16.632
  Cycle:      2 Defect Energy:   7.393161  Gnorm:     0.007703  CPU:   25.591
  Cycle:      3 Defect Energy:   6.808966  Gnorm:     0.001524  CPU:   33.164
  Cycle:      4 Defect Energy:   6.796913  Gnorm:     0.001269  CPU:   34.577
  Cycle:      5 Defect Energy:   6.794776  Gnorm:     0.001203  CPU:   36.022
  ** Hessian calculated **
  Cycle:      6 Defect Energy:   6.777318  Gnorm:     0.000847  CPU:   39.361
  Cycle:      7 Defect Energy:   6.768091  Gnorm:     0.000598  CPU:   40.756
  Cycle:      8 Defect Energy:   6.762965  Gnorm:     0.000421  CPU:   42.139
  Cycle:      9 Defect Energy:   6.760140  Gnorm:     0.000296  CPU:   43.345
  Cycle:     10 Defect Energy:   6.758613  Gnorm:     0.000208  CPU:   48.842
  Cycle:     11 Defect Energy:   6.757809  Gnorm:     0.000146  CPU:   50.474
  Cycle:     12 Defect Energy:   6.757368  Gnorm:     0.000102  CPU:   52.116
  Cycle:     13 Defect Energy:   6.757134  Gnorm:     0.000072  CPU:   53.765
  Cycle:     14 Defect Energy:   6.757010  Gnorm:     0.000050  CPU:   55.410
  Cycle:     15 Defect Energy:   6.756944  Gnorm:     0.000035  CPU:   56.964
  ** Hessian calculated **
  Cycle:     16 Defect Energy:   6.756909  Gnorm:     0.000025  CPU:   60.561
  Cycle:     17 Defect Energy:   6.756889  Gnorm:     0.000017  CPU:   62.059
  Cycle:     18 Defect Energy:   6.756879  Gnorm:     0.000012  CPU:   63.517


  **** Optimisation achieved ****


  Final defect energy  =        6.75687246
  Final defect Gnorm   =        0.00000846

  Components of defect energy : 

--------------------------------------------------------------------------------
  Region 1 - region 1                   =      0.98071278 eV
  Region 1 - region 2a (unrelaxed)      =      6.17978528 eV
  Region 1 - 2a (relaxed - correction)  =     -0.44212002 eV
  Region 1 (Total)                      =      6.71837804 eV
  Region 2a                             =      0.22105826 eV
  Region 2b                             =     -0.18256384 eV
--------------------------------------------------------------------------------
  Total defect energy                   =      6.75687246 eV
--------------------------------------------------------------------------------

  Largest displacement in region 2 =   0.0158 Angstroms

  Final coordinates of region 1 :

--------------------------------------------------------------------------------
   No.  Atomic        x           y           z          Radius      Charge
        Label       (Angs)      (Angs)      (Angs)       (Angs)       (e) 
--------------------------------------------------------------------------------
     1  Sc    c    -3.477416   -2.012301    6.179433    0.000000    3.000000
     2  Sc    c     0.334891    0.187530    6.183082    0.000000    3.000000
     3  Cl    c    -1.808039   -0.500677    5.269081    0.000000    1.485000
     4  Cl    c    -4.299999   -0.264951    7.744568    0.000000    1.485000
     5  Cl    c    -0.767377    1.774300    7.747212    0.000000    1.485000
     6  Cl    c    -3.817246   -3.677974    7.982431    0.000000    1.485000
     7  Cl    c     1.948083   -0.350484    7.985489    0.000000    1.485000
     8  Cl    c    -2.357369   -3.784828    4.855603    0.000000    1.485000
     9  Cl    c     1.309043   -1.669393    4.859381    0.000000    1.485000
    10  Cl    c    -1.084135   -5.620235    7.907889    0.000000    1.485000
    11  Cl    c     2.262864   -3.689704    7.909270    0.000000    1.485000
    12  Cl    c    -1.990506    0.175642   11.405770    0.000000    1.485000
    13  Cl    c     0.834663   -1.816638   11.398947    0.000000    1.485000
    14  Cl    c    -1.996939   -3.806900   11.412399    0.000000    1.485000
    15  Sc    c    -3.122637   -5.584625    6.465173    0.000000    3.000000
    16  Sc    c     3.251403   -1.905506    6.467916    0.000000    3.000000
    17  Cl    c    -5.408422   -1.570479    4.699819    0.000000    1.485000
    18  Cl    c     0.918747    2.079944    4.702471    0.000000    1.485000
    19  Cl    c     1.153460    1.638722   11.404441    0.000000    1.485000
    20  Sc    c     0.005556    0.001563   12.915651    0.000000    3.000000
    21  Cl    c     1.152395   -5.630146    4.949470    0.000000    1.485000
    22  Sc    c     0.005079   -3.638603   12.912531    0.000000    3.000000
    23  Cl    c    -5.440086   -1.818336   11.403516    0.000000    1.485000
    24  Sc    c    -6.396409    0.063222    6.366662    0.000000    3.000000
    25  Sc    c    -0.002866    3.753181    6.368337    0.000000    3.000000
    26  Cl    c     1.152615   -5.276092   11.404095    0.000000    1.485000
    27  Sc    c     0.042700   -7.316831    6.435001    0.000000    3.000000
    28  Sc    c     3.168184   -5.512798    6.434686    0.000000    3.000000
    29  Cl    c    -5.444921    1.861095    4.918043    0.000000    1.485000
    30  Cl    c    -2.034842    3.828090    4.918555    0.000000    1.485000
    31  Cl    c    -5.137122    1.630881   11.392089    0.000000    1.485000
    32  Cl    c    -4.275848    3.773423    7.913862    0.000000    1.485000
    33  Cl    c    -7.395191   -1.666490    7.871376    0.000000    1.485000
    34  Cl    c    -1.968599   -7.182961    4.938973    0.000000    1.485000
    35  Cl    c     4.057839   -3.702970    4.939953    0.000000    1.485000
    36  Cl    c     1.995213    3.754798    7.872010    0.000000    1.485000
    37  Cl    c    -4.313675   -7.152299    7.994914    0.000000    1.485000
    38  Cl    c     5.205899   -1.657419    7.995790    0.000000    1.485000
    39  Cl    c     2.021603   -7.135570    7.953680    0.000000    1.485000
    40  Cl    c    -5.172471   -5.589298    5.033030    0.000000    1.485000
    41  Cl    c     4.278882   -0.132981    5.034207    0.000000    1.485000
    42  Sc    c    -3.148775    1.820245   12.906313    0.000000    3.000000
    43  Cl    c    -1.152355   -1.992322    1.495982    0.000000    1.485000
    44  Cl    c    -2.294271    3.635136   11.406178    0.000000    1.485000
    45  Cl    c    -5.134526   -5.269446   11.397620    0.000000    1.485000
    46  Cl    c    -0.863828   -1.818574   14.396741    0.000000    1.485000
    47  Sc    c    -3.147015   -5.455694   12.914596    0.000000    3.000000
    48  Cl    c     4.292774    0.168396   11.411635    0.000000    1.485000
    49  Cl    c    -2.288109   -7.267386   11.413414    0.000000    1.485000
    50  Cl    c     4.290914   -3.800909   11.412210    0.000000    1.485000
    51  Cl    c    -7.115684    1.842472    7.958581    0.000000    1.485000
    52  Cl    c    -1.184574    5.266947    7.958762    0.000000    1.485000
    53  Cl    c    -3.984315   -0.003676    1.497660    0.000000    1.485000
    54  Cl    c    -1.143863    1.657799   14.396840    0.000000    1.485000
    55  Cl    c    -1.144476    1.983653    1.487277    0.000000    1.485000
    56  Cl    c    -4.293565   -3.457781    1.492089    0.000000    1.485000
    57  Sc    c    -6.295075   -0.001063   12.905042    0.000000    3.000000
    58  Cl    c     1.995747   -3.452468    1.502955    0.000000    1.485000
    59  Cl    c    -7.450205   -5.597097    7.963926    0.000000    1.485000
    60  Cl    c    -4.280972    0.149900   14.387151    0.000000    1.485000
    61  Cl    c     5.425630    1.836082    7.964489    0.000000    1.485000
    62  Cl    c     2.288810    0.000671    1.487282    0.000000    1.485000
    63  Sc    c    -6.294159   -3.636012   12.906046    0.000000    3.000000
    64  Sc    c     3.153832    1.822716   12.909725    0.000000    3.000000
    65  Cl    c     2.013621    0.159971   14.398208    0.000000    1.485000
    66  Cl    c    -0.853873   -5.451518    1.492615    0.000000    1.485000
    67  Cl    c    -0.860564   -9.095417    7.941093    0.000000    1.485000
    68  Cl    c     5.159442   -5.619443    7.941740    0.000000    1.485000
    69  Cl    c    -1.141301   -5.288448   14.403911    0.000000    1.485000
    70  Sc    c    -6.299754    3.668662    6.442031    0.000000    3.000000
    71  Sc    c    -3.173253    5.473154    6.441121    0.000000    3.000000
    72  Cl    c    -4.283562   -3.784919   14.392651    0.000000    1.485000
    73  Cl    c     2.014502   -3.788764   14.394709    0.000000    1.485000
    74  Sc    c     3.152663   -5.457213   12.909395    0.000000    3.000000
    75  Sc    c    -6.326060   -7.281159    6.492520    0.000000    3.000000
    76  Sc    c     6.321868    0.021168    6.492206    0.000000    3.000000
    77  Cl    c    -8.431654   -0.117266    4.939914    0.000000    1.485000
    78  Cl    c     1.170107    5.424575    4.939738    0.000000    1.485000
    79  Sc    c    -3.145164   -1.818699   -0.017534    0.000000    3.000000
    80  Cl    c    -8.293680    0.166769   11.403529    0.000000    1.485000
    81  Cl    c     3.996510    3.639725   11.405300    0.000000    1.485000
    82  Cl    c    -8.575222   -3.633788    4.968022    0.000000    1.485000
    83  Sc    c     0.003604   -3.637482   -0.006168    0.000000    3.000000
    84  Cl    c     4.288493    3.792191    4.968131    0.000000    1.485000
    85  Cl    c    -8.293843   -3.799339   11.405877    0.000000    1.485000
    86  Cl    c     0.892230   -9.127078    4.940362    0.000000    1.485000
    87  Cl    c     4.311848   -7.153843    4.940856    0.000000    1.485000
    88  Cl    c     1.147938    5.613995   11.411036    0.000000    1.485000
    89  Sc    c    -9.466759   -1.829611    6.459317    0.000000    3.000000
    90  Sc    c     3.171079    5.466829    6.458297    0.000000    3.000000
    91  Cl    c     4.000311   -7.272465   11.406682    0.000000    1.485000
    92  Cl    c    -5.161589    5.306666    4.931480    0.000000    1.485000
    93  Cl    c     1.143832   -9.243609   11.413766    0.000000    1.485000
    94  Cl    c    -4.293793    3.453012    1.503050    0.000000    1.485000
    95  Cl    c     1.992088    3.451211    1.502102    0.000000    1.485000
    96  Sc    c    -3.147713    1.818907   -0.010537    0.000000    3.000000
    97  Cl    c    -4.015777    3.633301   14.396242    0.000000    1.485000
    98  Cl    c    -7.151435   -1.817815   14.398213    0.000000    1.485000
    99  Sc    c    -3.147192    5.454428   12.910405    0.000000    3.000000
   100  Cl    c    -7.432675   -1.981791    1.492845    0.000000    1.485000
   101  Cl    c    -5.147155    5.612469   11.409865    0.000000    1.485000
   102  Cl    c     5.141686   -1.985092    1.499948    0.000000    1.485000
   103  Sc    c     3.150013   -1.817423   -0.009288    0.000000    3.000000
   104  Cl    c     7.139260   -1.817107   11.404633    0.000000    1.485000
   105  Cl    c     2.274302    3.635411   14.394591    0.000000    1.485000
   106  Cl    c    -4.013438   -7.271123   14.401624    0.000000    1.485000
   107  Cl    c    -5.430436   -9.062161    4.978996    0.000000    1.485000
   108  Cl    c     7.417019   -1.645182    4.979318    0.000000    1.485000
   109  Sc    c     6.296908   -0.001227   12.911804    0.000000    3.000000
   110  Cl    c    -4.287990   -7.424739    1.493763    0.000000    1.485000
   111  Cl    c     1.999742   -7.427477    1.493948    0.000000    1.485000
   112  Sc    c    -3.146774   -9.089632   12.910113    0.000000    3.000000
   113  Sc    c     6.296123   -3.635148   12.910124    0.000000    3.000000
   114  Sc    c    -9.452383   -5.452573    6.456518    0.000000    3.000000
   115  Sc    c     6.301367    3.642945    6.457824    0.000000    3.000000
   116  Cl    c     5.421710   -1.817985   14.396984    0.000000    1.485000
   117  Cl    c     2.276020   -7.269898   14.395790    0.000000    1.485000
   118  Cl    c    -5.149036   -9.243779   11.412283    0.000000    1.485000
   119  Cl    c    -7.434669    5.305490    7.950580    0.000000    1.485000
   120  Cl    c    -4.023618    7.273493    7.950730    0.000000    1.485000
   121  Cl    c   -10.291124   -3.641847    7.971547    0.000000    1.485000
   122  Cl    c     5.152039    5.275360    7.971565    0.000000    1.485000
   123  Cl    c    -8.309073    3.784321    4.958521    0.000000    1.485000
   124  Cl    c    -2.269176    7.272163    4.958691    0.000000    1.485000
   125  Cl    c    -1.997925    7.091372   11.401388    0.000000    1.485000
   126  Sc    c     0.002022  -10.921397    6.451967    0.000000    3.000000
   127  Cl    c    -8.291834   -7.088768    4.957435    0.000000    1.485000
   128  Sc    c     6.310396   -7.279323    6.453280    0.000000    3.000000
   129  Cl    c     7.137866    1.820378    4.957755    0.000000    1.485000
   130  Cl    c   -10.586231   -0.169366    7.959592    0.000000    1.485000
   131  Cl    c     2.292831    7.265601    7.959544    0.000000    1.485000
   132  Cl    c    -0.853312    5.444507    1.498395    0.000000    1.485000
   133  Sc    c     0.002152    3.637732   -0.011041    0.000000    3.000000
   134  Cl    c    -7.132393   -5.446933    1.506871    0.000000    1.485000
   135  Cl    c    -7.177482   -9.108064    7.968529    0.000000    1.485000
   136  Cl    c     8.329297   -0.154558    7.968805    0.000000    1.485000
   137  Cl    c    -2.278344    0.002549   -1.498103    0.000000    1.485000
   138  Cl    c    -1.999282   -3.475537   -1.499188    0.000000    1.485000
   139  Cl    c    -7.428743    1.661298   14.391718    0.000000    1.485000
   140  Sc    c    -6.298015   -3.636270   -0.009309    0.000000    3.000000
   141  Sc    c     3.150618    1.819388   -0.009205    0.000000    3.000000
   142  Cl    c     5.154087    1.655641   14.403355    0.000000    1.485000
   143  Cl    c    -7.431719    1.975292    1.494075    0.000000    1.485000
   144  Cl    c     1.135813   -1.969624   -1.490244    0.000000    1.485000
   145  Sc    c     3.149631    5.457401   12.912476    0.000000    3.000000
   146  Cl    c     5.141687    1.986774    1.500693    0.000000    1.485000
   147  Cl    c    -1.151766   -8.901080    1.507280    0.000000    1.485000
   148  Cl    c    -1.135702    5.601316   14.393184    0.000000    1.485000
   149  Cl    c    -8.572591    3.632457   11.412671    0.000000    1.485000
   150  Cl    c    -7.430043   -5.294858   14.394683    0.000000    1.485000
   151  Sc    c     0.000738   -7.272974   -0.008453    0.000000    3.000000
   152  Cl    c     5.152124   -5.287536   14.404884    0.000000    1.485000
   153  Cl    c    -1.995455  -10.722296   11.399681    0.000000    1.485000
   154  Cl    c     7.434177    1.649090   11.409478    0.000000    1.485000
   155  Cl    c    -2.007255  -11.054321    4.962762    0.000000    1.485000
   156  Cl    c     7.429257   -5.606149    4.962800    0.000000    1.485000
   157  Cl    c    -4.279992  -11.042060    7.935202    0.000000    1.485000
   158  Cl    c     8.555776   -3.632188    7.935124    0.000000    1.485000
   159  Cl    c     5.425064   -5.449016    1.492985    0.000000    1.485000
   160  Cl    c     2.005866  -11.057317    7.947065    0.000000    1.485000
   161  Cl    c     5.426194   -9.083623    7.947137    0.000000    1.485000
   162  Cl    c    -8.573295   -7.264871   11.412354    0.000000    1.485000
   163  Sc    c     3.149149   -9.091048   12.910048    0.000000    3.000000
   164  Cl    c     7.436252   -5.282776   11.408082    0.000000    1.485000
   165  Cl    s    -1.757209   -0.589075    5.458886    0.000000   -2.485000
   166  Cl    s    -3.727230   -3.660676    7.707030    0.000000   -2.485000
   167  Cl    s     1.888149   -0.419973    7.710069    0.000000   -2.485000
   168  Cl    s    -4.369146   -0.398987    7.507366    0.000000   -2.485000
   169  Cl    s    -0.616654    1.767151    7.509930    0.000000   -2.485000
   170  Cl    s    -2.513364   -3.748873    5.094382    0.000000   -2.485000
   171  Cl    s     1.355829   -1.516045    5.097961    0.000000   -2.485000
   172  Cl    s    -1.165261   -5.738589    7.677074    0.000000   -2.485000
   173  Cl    s     2.405888   -3.678183    7.678417    0.000000   -2.485000
   174  Cl    s     0.702288   -1.815002   11.622038    0.000000   -2.485000
   175  Cl    s    -1.923704    0.287683   11.624538    0.000000   -2.485000
   176  Cl    s    -1.929429   -3.919043   11.633980    0.000000   -2.485000
   177  Cl    s    -5.291813   -1.493825    4.957616    0.000000   -2.485000
   178  Cl    s     0.793763    2.017002    4.960415    0.000000   -2.485000
   179  Cl    s     1.217025    1.521571   11.630064    0.000000   -2.485000
   180  Cl    s     1.220567   -5.747911    5.182098    0.000000   -2.485000
   181  Cl    s     1.216090   -5.157770   11.632901    0.000000   -2.485000
   182  Cl    s    -5.571237   -1.817799   11.628220    0.000000   -2.485000
   183  Cl    s    -1.909092   -7.055163    5.180675    0.000000   -2.485000
   184  Cl    s     3.917478   -3.691034    5.181553    0.000000   -2.485000
   185  Cl    s     1.952525   -7.016129    7.711583    0.000000   -2.485000
   186  Cl    s    -5.582672    1.847172    5.152466    0.000000   -2.485000
   187  Cl    s    -1.954287    3.940635    5.152950    0.000000   -2.485000
   188  Cl    s    -4.367297   -7.026249    7.753754    0.000000   -2.485000
   189  Cl    s     5.122978   -1.548144    7.754544    0.000000   -2.485000
   190  Cl    s    -5.069116    1.516136   11.620932    0.000000   -2.485000
   191  Cl    s    -5.091318   -5.707162    5.262352    0.000000   -2.485000
   192  Cl    s     4.340776   -0.262017    5.263472    0.000000   -2.485000
   193  Cl    s    -0.725142   -1.817233   14.161384    0.000000   -2.485000
   194  Cl    s    -7.466518   -1.540325    7.639614    0.000000   -2.485000
   195  Cl    s     1.921205    3.879267    7.640200    0.000000   -2.485000
   196  Cl    s    -4.346227    3.894905    7.681863    0.000000   -2.485000
   197  Cl    s    -5.067347   -5.153534   11.626431    0.000000   -2.485000
   198  Cl    s    -2.427802    3.630414   11.633353    0.000000   -2.485000
   199  Cl    s    -1.219548   -2.104236    1.275690    0.000000   -2.485000
   200  Cl    s    -6.988126    1.834518    7.709608    0.000000   -2.485000
   201  Cl    s    -1.241226    5.152297    7.709755    0.000000   -2.485000
   202  Cl    s    -2.423549   -7.263161   11.641377    0.000000   -2.485000
   203  Cl    s     4.356337    0.285260   11.638298    0.000000   -2.485000
   204  Cl    s    -1.211386    1.536775   14.160616    0.000000   -2.485000
   205  Cl    s     4.355926   -3.917078   11.639499    0.000000   -2.485000
   206  Cl    s    -1.209422   -5.168285   14.167499    0.000000   -2.485000
   207  Cl    s     1.940774    0.278213   14.162842    0.000000   -2.485000
   208  Cl    s    -4.349273    0.271118   14.152838    0.000000   -2.485000
   209  Cl    s    -3.850429   -0.005484    1.274526    0.000000   -2.485000
   210  Cl    s     1.941442   -3.907143   14.160359    0.000000   -2.485000
   211  Cl    s    -4.351574   -3.905719   14.158551    0.000000   -2.485000
   212  Cl    s    -0.721827   -9.089193    7.705321    0.000000   -2.485000
   213  Cl    s     5.084983   -5.736687    7.705911    0.000000   -2.485000
   214  Cl    s     1.926596   -3.336802    1.274067    0.000000   -2.485000
   215  Cl    s    -7.511650   -5.717591    7.730891    0.000000   -2.485000
   216  Cl    s    -4.357212   -3.338958    1.268924    0.000000   -2.485000
   217  Cl    s     5.560699    1.829414    7.731352    0.000000   -2.485000
   218  Cl    s    -1.212139    2.095968    1.265259    0.000000   -2.485000
   219  Cl    s    -0.720081   -5.446212    1.265514    0.000000   -2.485000
   220  Cl    s    -8.335132   -0.234361    5.173809    0.000000   -2.485000
   221  Cl    s     1.223577    5.282873    5.173793    0.000000   -2.485000
   222  Cl    s     2.419857    0.000644    1.264661    0.000000   -2.485000
   223  Cl    s     0.752431   -9.114765    5.177488    0.000000   -2.485000
   224  Cl    s     4.370741   -7.026407    5.177968    0.000000   -2.485000
   225  Cl    s     3.861539    3.636828   11.635594    0.000000   -2.485000
   226  Cl    s    -8.223384    0.282384   11.632449    0.000000   -2.485000
   227  Cl    s    -8.709453   -3.630778    5.200537    0.000000   -2.485000
   228  Cl    s     4.352714    3.910113    5.200704    0.000000   -2.485000
   229  Cl    s    -5.091589    5.185684    5.171053    0.000000   -2.485000
   230  Cl    s    -8.223453   -3.914784   11.635265    0.000000   -2.485000
   231  Cl    s     3.864810   -7.269266   11.637794    0.000000   -2.485000
   232  Cl    s    -7.013212   -1.817252   14.161549    0.000000   -2.485000
   233  Cl    s     1.214153    5.729943   11.638981    0.000000   -2.485000
   234  Cl    s    -3.876694    3.630544   14.160698    0.000000   -2.485000
   235  Cl    s     1.924040    3.334775    1.273314    0.000000   -2.485000
   236  Cl    s    -3.874808   -7.266969   14.166251    0.000000   -2.485000
   237  Cl    s    -4.358400    3.335415    1.272860    0.000000   -2.485000
   238  Cl    s     1.211068   -9.360219   11.643001    0.000000   -2.485000
   239  Cl    s     2.412809    3.632982   14.160681    0.000000   -2.485000
   240  Cl    s     7.003766   -1.816458   11.636147    0.000000   -2.485000
   241  Cl    s    -5.567313   -9.059087    5.212637    0.000000   -2.485000
   242  Cl    s     7.482465   -1.525017    5.212838    0.000000   -2.485000
   243  Cl    s     5.071566   -2.100552    1.270051    0.000000   -2.485000
   244  Cl    s    -5.078043    5.728189   11.639176    0.000000   -2.485000
   245  Cl    s     2.414025   -7.266458   14.162051    0.000000   -2.485000
   246  Cl    s    -7.497370   -2.098677    1.266001    0.000000   -2.485000
   247  Cl    s     5.559146   -1.817084   14.163285    0.000000   -2.485000
   248  Cl    s   -10.154475   -3.637721    7.731722    0.000000   -2.485000
   249  Cl    s     5.080502    5.158865    7.731712    0.000000   -2.485000
   250  Cl    s    -8.223569   -6.971457    5.197258    0.000000   -2.485000
   251  Cl    s     7.002196    1.819592    5.197579    0.000000   -2.485000
   252  Cl    s    -7.496888    5.180876    7.712640    0.000000   -2.485000
   253  Cl    s    -3.884604    7.265529    7.712769    0.000000   -2.485000
   254  Cl    s    -1.931955   -3.353646   -1.261719    0.000000   -2.485000
   255  Cl    s    -8.232496    3.902532    5.193738    0.000000   -2.485000
   256  Cl    s    -2.409819    7.264520    5.193831    0.000000   -2.485000
   257  Cl    s    -2.417197    0.000806   -1.261446    0.000000   -2.485000
   258  Cl    s     5.082641    1.537087   14.167231    0.000000   -2.485000
   259  Cl    s     1.930618   -7.543256    1.264475    0.000000   -2.485000
   260  Cl    s    -1.931089    6.973171   11.632763    0.000000   -2.485000
   261  Cl    s    -4.355679   -7.540572    1.265965    0.000000   -2.485000
   262  Cl    s    -5.079645   -9.359401   11.641823    0.000000   -2.485000
   263  Cl    s    -7.494870    1.539187   14.156556    0.000000   -2.485000
   264  Cl    s     1.204535   -2.090410   -1.255002    0.000000   -2.485000
   265  Cl    s    -7.037013   -9.095990    7.732410    0.000000   -2.485000
   266  Cl    s     8.248902   -0.270346    7.732611    0.000000   -2.485000
   267  Cl    s     5.081453   -5.168992   14.168658    0.000000   -2.485000
   268  Cl    s   -10.646622   -0.290214    7.724598    0.000000   -2.485000
   269  Cl    s     2.427735    7.257944    7.724431    0.000000   -2.485000
   270  Cl    s    -7.496091   -5.172818   14.159280    0.000000   -2.485000
   271  Cl    s    -6.998226   -5.444492    1.274970    0.000000   -2.485000
   272  Cl    s    -1.206840    5.719566   14.158933    0.000000   -2.485000
   273  Cl    s    -0.718631    5.441405    1.268947    0.000000   -2.485000
   274  Cl    s    -1.218247   -8.784017    1.274841    0.000000   -2.485000
   275  Cl    s    -1.929610  -10.604406   11.632763    0.000000   -2.485000
   276  Cl    s     5.071397    2.101483    1.269964    0.000000   -2.485000
   277  Cl    s    -7.497085    2.092098    1.266570    0.000000   -2.485000
   278  Cl    s    -8.707180    3.630034   11.641205    0.000000   -2.485000
   279  Cl    s     7.499381    1.530695   11.639735    0.000000   -2.485000
   280  Cl    s    -1.937114  -11.170904    5.194934    0.000000   -2.485000
   281  Cl    s     7.495505   -5.725006    5.194958    0.000000   -2.485000
   282  Cl    s     1.934601  -11.173794    7.713802    0.000000   -2.485000
   283  Cl    s     5.562663   -9.079749    7.713879    0.000000   -2.485000
   284  Cl    s    -4.350122  -11.159428    7.704162    0.000000   -2.485000
   285  Cl    s     8.692516   -3.629759    7.704016    0.000000   -2.485000
   286  Cl    s     7.500972   -5.163955   11.639471    0.000000   -2.485000
   287  Cl    s    -8.708093   -7.262569   11.641379    0.000000   -2.485000
   288  Cl    s     5.559674   -5.446223    1.264320    0.000000   -2.485000
--------------------------------------------------------------------------------

  Final coordinates of symmetry reduced region 1 (relative to defect centre):

--------------------------------------------------------------------------------
   No.  Atomic        x           y           z          Charge
        Label       (Angs)      (Angs)      (Angs)         (e) 
--------------------------------------------------------------------------------
     1  Sc    c    -2.312464   -0.389883   -1.711802    3.000000
     2  Sc    c     1.499843    1.809947   -1.708153    3.000000
     3  Cl    c    -0.643087    1.121740   -2.622154    1.485000
     4  Cl    c    -3.135047    1.357466   -0.146667    1.485000
     5  Cl    c     0.397576    3.396717   -0.144023    1.485000
     6  Cl    c    -2.652294   -2.055557    0.091196    1.485000
     7  Cl    c     3.113035    1.271933    0.094254    1.485000
     8  Cl    c    -1.192416   -2.162411   -3.035632    1.485000
     9  Cl    c     2.473995   -0.046975   -3.031854    1.485000
    10  Cl    c     0.080818   -3.997818    0.016654    1.485000
    11  Cl    c     3.427816   -2.067287    0.018035    1.485000
    12  Cl    c    -0.825554    1.798060    3.514535    1.485000
    13  Cl    c     1.999615   -0.194221    3.507712    1.485000
    14  Cl    c    -0.831987   -2.184483    3.521164    1.485000
    15  Sc    c    -1.957685   -3.962208   -1.426062    3.000000
    16  Sc    c     4.416356   -0.283089   -1.423319    3.000000
    17  Cl    c    -4.243470    0.051938   -3.191416    1.485000
    18  Cl    c     2.083699    3.702361   -3.188764    1.485000
    19  Cl    c     2.318412    3.261139    3.513206    1.485000
    20  Sc    c     1.170508    1.623980    5.024416    3.000000
    21  Cl    c     2.317347   -4.007729   -2.941765    1.485000
    22  Sc    c     1.170031   -2.016185    5.021296    3.000000
    23  Cl    c    -4.275133   -0.195919    3.512281    1.485000
    24  Sc    c    -5.231457    1.685639   -1.524573    3.000000
    25  Sc    c     1.162087    5.375598   -1.522898    3.000000
    26  Cl    c     2.317568   -3.653675    3.512860    1.485000
    27  Sc    c     1.207652   -5.694413   -1.456234    3.000000
    28  Sc    c     4.333136   -3.890381   -1.456549    3.000000
    29  Cl    c    -4.279969    3.483512   -2.973192    1.485000
    30  Cl    c    -0.869890    5.450507   -2.972680    1.485000
    31  Cl    c    -3.972170    3.253298    3.500854    1.485000
    32  Cl    c    -3.110896    5.395840    0.022627    1.485000
    33  Cl    c    -6.230239   -0.044073   -0.019859    1.485000
    34  Cl    c    -0.803647   -5.560543   -2.952262    1.485000
    35  Cl    c     5.222791   -2.080553   -2.951282    1.485000
    36  Cl    c     3.160165    5.377215   -0.019225    1.485000
    37  Cl    c    -3.148723   -5.529882    0.103679    1.485000
    38  Cl    c     6.370851   -0.035001    0.104555    1.485000
    39  Cl    c     3.186555   -5.513153    0.062445    1.485000
    40  Cl    c    -4.007518   -3.966881   -2.858205    1.485000
    41  Cl    c     5.443834    1.489436   -2.857028    1.485000
    42  Sc    c    -1.983822    3.442662    5.015078    3.000000
    43  Cl    c     0.012597   -0.369904   -6.395253    1.485000
    44  Cl    c    -1.129319    5.257553    3.514943    1.485000
    45  Cl    c    -3.969574   -3.647029    3.506385    1.485000
    46  Cl    c     0.301124   -0.196157    6.505506    1.485000
    47  Sc    c    -1.982063   -3.833277    5.023361    3.000000
    48  Cl    c     5.457726    1.790813    3.520400    1.485000
    49  Cl    c    -1.123157   -5.644969    3.522179    1.485000
    50  Cl    c     5.455866   -2.178491    3.520975    1.485000
    51  Cl    c    -5.950732    3.464889    0.067346    1.485000
    52  Cl    c    -0.019622    6.889364    0.067527    1.485000
    53  Cl    c    -2.819363    1.618741   -6.393575    1.485000
    54  Cl    c     0.021089    3.280216    6.505605    1.485000
    55  Cl    c     0.020476    3.606070   -6.403958    1.485000
    56  Cl    c    -3.128613   -1.835364   -6.399146    1.485000
    57  Sc    c    -5.130122    1.621355    5.013807    3.000000
    58  Cl    c     3.160699   -1.830051   -6.388280    1.485000
    59  Cl    c    -6.285253   -3.974680    0.072691    1.485000
    60  Cl    c    -3.116020    1.772317    6.495916    1.485000
    61  Cl    c     6.590582    3.458499    0.073254    1.485000
    62  Cl    c     3.453762    1.623088   -6.403953    1.485000
    63  Sc    c    -5.129207   -2.013595    5.014811    3.000000
    64  Sc    c     4.318784    3.445133    5.018489    3.000000
    65  Cl    c     3.178573    1.782388    6.506973    1.485000
    66  Cl    c     0.311080   -3.829100   -6.398620    1.485000
    67  Cl    c     0.304388   -7.473000    0.049858    1.485000
    68  Cl    c     6.324394   -3.997025    0.050505    1.485000
    69  Cl    c     0.023652   -3.666031    6.512676    1.485000
    70  Sc    c    -5.134801    5.291079   -1.449204    3.000000
    71  Sc    c    -2.008301    7.095571   -1.450114    3.000000
    72  Cl    c    -3.118610   -2.162502    6.501416    1.485000
    73  Cl    c     3.179455   -2.166346    6.503474    1.485000
    74  Sc    c     4.317615   -3.834796    5.018160    3.000000
    75  Sc    c    -5.161108   -5.658742   -1.398715    3.000000
    76  Sc    c     7.486821    1.643585   -1.399029    3.000000
    77  Cl    c    -7.266702    1.505151   -2.951321    1.485000
    78  Cl    c     2.335059    7.046992   -2.951497    1.485000
    79  Sc    c    -1.980212   -0.196281   -7.908769    3.000000
    80  Cl    c    -7.128727    1.789186    3.512294    1.485000
    81  Cl    c     5.161462    5.262143    3.514065    1.485000
    82  Cl    c    -7.410270   -2.011370   -2.923213    1.485000
    83  Sc    c     1.168557   -2.015064   -7.897403    3.000000
    84  Cl    c     5.453445    5.414609   -2.923104    1.485000
    85  Cl    c    -7.128891   -2.176922    3.514642    1.485000
    86  Cl    c     2.057182   -7.504661   -2.950873    1.485000
    87  Cl    c     5.476801   -5.531426   -2.950379    1.485000
    88  Cl    c     2.312891    7.236412    3.519801    1.485000
    89  Sc    c    -8.301807   -0.207194   -1.431918    3.000000
    90  Sc    c     4.336031    7.089246   -1.432938    3.000000
    91  Cl    c     5.165263   -5.650047    3.515447    1.485000
    92  Cl    c    -3.996637    6.929083   -2.959755    1.485000
    93  Cl    c     2.308784   -7.621192    3.522531    1.485000
    94  Cl    c    -3.128841    5.075429   -6.388185    1.485000
    95  Cl    c     3.157040    5.073628   -6.389133    1.485000
    96  Sc    c    -1.982761    3.441324   -7.901772    3.000000
    97  Cl    c    -2.850824    5.255718    6.505007    1.485000
    98  Cl    c    -5.986482   -0.195398    6.506978    1.485000
    99  Sc    c    -1.982240    7.076845    5.019170    3.000000
   100  Cl    c    -6.267723   -0.359374   -6.398390    1.485000
   101  Cl    c    -3.982203    7.234886    3.518630    1.485000
   102  Cl    c     6.306638   -0.362675   -6.391287    1.485000
   103  Sc    c     4.314965   -0.195006   -7.900523    3.000000
   104  Cl    c     8.304213   -0.194690    3.513398    1.485000
   105  Cl    c     3.439254    5.257828    6.503356    1.485000
   106  Cl    c    -2.848485   -5.648706    6.510389    1.485000
   107  Cl    c    -4.265484   -7.439744   -2.912239    1.485000
   108  Cl    c     8.581972   -0.022765   -2.911917    1.485000
   109  Sc    c     7.461860    1.621190    5.020569    3.000000
   110  Cl    c    -3.123038   -5.802322   -6.397472    1.485000
   111  Cl    c     3.164695   -5.805060   -6.397287    1.485000
   112  Sc    c    -1.981821   -7.467215    5.018878    3.000000
   113  Sc    c     7.461075   -2.012730    5.018889    3.000000
   114  Sc    c    -8.287431   -3.830156   -1.434717    3.000000
   115  Sc    c     7.466319    5.265362   -1.433411    3.000000
   116  Cl    c     6.586662   -0.195568    6.505749    1.485000
   117  Cl    c     3.440972   -5.647481    6.504555    1.485000
   118  Cl    c    -3.984084   -7.621362    3.521048    1.485000
   119  Cl    c    -6.269717    6.927907    0.059345    1.485000
   120  Cl    c    -2.858666    8.895910    0.059495    1.485000
   121  Cl    c    -9.126172   -2.019430    0.080312    1.485000
   122  Cl    c     6.316991    6.897777    0.080330    1.485000
   123  Cl    c    -7.144120    5.406738   -2.932715    1.485000
   124  Cl    c    -1.104224    8.894581   -2.932544    1.485000
   125  Cl    c    -0.832973    8.713789    3.510153    1.485000
   126  Sc    c     1.166974   -9.298979   -1.439268    3.000000
   127  Cl    c    -7.126882   -5.466350   -2.933800    1.485000
   128  Sc    c     7.475348   -5.656906   -1.437955    3.000000
   129  Cl    c     8.302818    3.442795   -2.933480    1.485000
   130  Cl    c    -9.421279    1.453051    0.068357    1.485000
   131  Cl    c     3.457784    8.888018    0.068309    1.485000
   132  Cl    c     0.311640    7.066924   -6.392840    1.485000
   133  Sc    c     1.167104    5.260149   -7.902276    3.000000
   134  Cl    c    -5.967440   -3.824516   -6.384364    1.485000
   135  Cl    c    -6.012529   -7.485646    0.077294    1.485000
   136  Cl    c     9.494250    1.467859    0.077570    1.485000
   137  Cl    c    -1.113391    1.624966   -9.389338    1.485000
   138  Cl    c    -0.834329   -1.853120   -9.390423    1.485000
   139  Cl    c    -6.263791    3.283715    6.500483    1.485000
   140  Sc    c    -5.133062   -2.013852   -7.900544    3.000000
   141  Sc    c     4.315570    3.441806   -7.900440    3.000000
   142  Cl    c     6.319039    3.278058    6.512120    1.485000
   143  Cl    c    -6.266766    3.597709   -6.397160    1.485000
   144  Cl    c     2.300766   -0.347207   -9.381479    1.485000
   145  Sc    c     4.314583    7.079818    5.021241    3.000000
   146  Cl    c     6.306639    3.609192   -6.390542    1.485000
   147  Cl    c     0.013187   -7.278663   -6.383955    1.485000
   148  Cl    c     0.029251    7.223733    6.501949    1.485000
   149  Cl    c    -7.407639    5.254874    3.521436    1.485000
   150  Cl    c    -6.265091   -3.672441    6.503448    1.485000
   151  Sc    c     1.165690   -5.650557   -7.899688    3.000000
   152  Cl    c     6.317076   -3.665118    6.513649    1.485000
   153  Cl    c    -0.830503   -9.099879    3.508446    1.485000
   154  Cl    c     8.599130    3.271507    3.518243    1.485000
   155  Cl    c    -0.842303   -9.431904   -2.928473    1.485000
   156  Cl    c     8.594210   -3.983732   -2.928435    1.485000
   157  Cl    c    -3.115039   -9.419642    0.043967    1.485000
   158  Cl    c     9.720728   -2.009771    0.043889    1.485000
   159  Cl    c     6.590017   -3.826599   -6.398250    1.485000
   160  Cl    c     3.170818   -9.434900    0.055830    1.485000
   161  Cl    c     6.591146   -7.461205    0.055902    1.485000
   162  Cl    c    -7.408343   -5.642454    3.521119    1.485000
   163  Sc    c     4.314101   -7.468631    5.018813    3.000000
   164  Cl    c     8.601204   -3.660359    3.516847    1.485000
   165  Cl    s    -0.592257    1.033342   -2.432349   -2.485000
   166  Cl    s    -2.562278   -2.038259   -0.184205   -2.485000
   167  Cl    s     3.053102    1.202444   -0.181166   -2.485000
   168  Cl    s    -3.204193    1.223430   -0.383869   -2.485000
   169  Cl    s     0.548298    3.389568   -0.381305   -2.485000
   170  Cl    s    -1.348411   -2.126456   -2.796853   -2.485000
   171  Cl    s     2.520781    0.106372   -2.793274   -2.485000
   172  Cl    s    -0.000309   -4.116172   -0.214161   -2.485000
   173  Cl    s     3.570840   -2.055766   -0.212818   -2.485000
   174  Cl    s     1.867241   -0.192584    3.730803   -2.485000
   175  Cl    s    -0.758752    1.910100    3.733303   -2.485000
   176  Cl    s    -0.764477   -2.296626    3.742744   -2.485000
   177  Cl    s    -4.126861    0.128592   -2.933619   -2.485000
   178  Cl    s     1.958716    3.639419   -2.930820   -2.485000
   179  Cl    s     2.381977    3.143988    3.738829   -2.485000
   180  Cl    s     2.385519   -4.125494   -2.709137   -2.485000
   181  Cl    s     2.381042   -3.535353    3.741666   -2.485000
   182  Cl    s    -4.406285   -0.195381    3.736985   -2.485000
   183  Cl    s    -0.744140   -5.432746   -2.710560   -2.485000
   184  Cl    s     5.082431   -2.068616   -2.709682   -2.485000
   185  Cl    s     3.117477   -5.393712   -0.179652   -2.485000
   186  Cl    s    -4.417719    3.469590   -2.738769   -2.485000
   187  Cl    s    -0.789335    5.563052   -2.738285   -2.485000
   188  Cl    s    -3.202345   -5.403832   -0.137481   -2.485000
   189  Cl    s     6.287930    0.074273   -0.136691   -2.485000
   190  Cl    s    -3.904163    3.138553    3.729697   -2.485000
   191  Cl    s    -3.926366   -4.084745   -2.628883   -2.485000
   192  Cl    s     5.505728    1.360400   -2.627763   -2.485000
   193  Cl    s     0.439810   -0.194815    6.270149   -2.485000
   194  Cl    s    -6.301566    0.082092   -0.251621   -2.485000
   195  Cl    s     3.086158    5.501685   -0.251035   -2.485000
   196  Cl    s    -3.181275    5.517322   -0.209372   -2.485000
   197  Cl    s    -3.902395   -3.531117    3.735196   -2.485000
   198  Cl    s    -1.262850    5.252831    3.742118   -2.485000
   199  Cl    s    -0.054595   -0.481819   -6.615545   -2.485000
   200  Cl    s    -5.823173    3.456935   -0.181627   -2.485000
   201  Cl    s    -0.076274    6.774714   -0.181480   -2.485000
   202  Cl    s    -1.258597   -5.640743    3.750142   -2.485000
   203  Cl    s     5.521290    1.907677    3.747063   -2.485000
   204  Cl    s    -0.046434    3.159192    6.269381   -2.485000
   205  Cl    s     5.520879   -2.294661    3.748264   -2.485000
   206  Cl    s    -0.044470   -3.545868    6.276264   -2.485000
   207  Cl    s     3.105727    1.900630    6.271607   -2.485000
   208  Cl    s    -3.184321    1.893535    6.261603   -2.485000
   209  Cl    s    -2.685476    1.616933   -6.616709   -2.485000
   210  Cl    s     3.106394   -2.284726    6.269124   -2.485000
   211  Cl    s    -3.186622   -2.283302    6.267316   -2.485000
   212  Cl    s     0.443126   -7.466776   -0.185914   -2.485000
   213  Cl    s     6.249935   -4.114269   -0.185324   -2.485000
   214  Cl    s     3.091548   -1.714385   -6.617168   -2.485000
   215  Cl    s    -6.346698   -4.095174   -0.160344   -2.485000
   216  Cl    s    -3.192260   -1.716541   -6.622311   -2.485000
   217  Cl    s     6.725651    3.451831   -0.159883   -2.485000
   218  Cl    s    -0.047187    3.718385   -6.625976   -2.485000
   219  Cl    s     0.444871   -3.823795   -6.625721   -2.485000
   220  Cl    s    -7.170180    1.388056   -2.717426   -2.485000
   221  Cl    s     2.388529    6.905290   -2.717442   -2.485000
   222  Cl    s     3.584809    1.623061   -6.626574   -2.485000
   223  Cl    s     1.917384   -7.492348   -2.713747   -2.485000
   224  Cl    s     5.535693   -5.403990   -2.713267   -2.485000
   225  Cl    s     5.026491    5.259245    3.744359   -2.485000
   226  Cl    s    -7.058432    1.904801    3.741213   -2.485000
   227  Cl    s    -7.544500   -2.008360   -2.690698   -2.485000
   228  Cl    s     5.517666    5.532530   -2.690531   -2.485000
   229  Cl    s    -3.926637    6.808102   -2.720182   -2.485000
   230  Cl    s    -7.058501   -2.292367    3.744030   -2.485000
   231  Cl    s     5.029763   -5.646849    3.746559   -2.485000
   232  Cl    s    -5.848259   -0.194835    6.270314   -2.485000
   233  Cl    s     2.379105    7.352360    3.747746   -2.485000
   234  Cl    s    -2.711742    5.252962    6.269463   -2.485000
   235  Cl    s     3.088993    4.957192   -6.617921   -2.485000
   236  Cl    s    -2.709856   -5.644552    6.275016   -2.485000
   237  Cl    s    -3.193448    4.957832   -6.618375   -2.485000
   238  Cl    s     2.376020   -7.737801    3.751766   -2.485000
   239  Cl    s     3.577761    5.255399    6.269446   -2.485000
   240  Cl    s     8.168719   -0.194041    3.744912   -2.485000
   241  Cl    s    -4.402361   -7.436670   -2.678598   -2.485000
   242  Cl    s     8.647417    0.097401   -2.678397   -2.485000
   243  Cl    s     6.236518   -0.478135   -6.621184   -2.485000
   244  Cl    s    -3.913091    7.350606    3.747941   -2.485000
   245  Cl    s     3.578978   -5.644040    6.270816   -2.485000
   246  Cl    s    -6.332418   -0.476260   -6.625234   -2.485000
   247  Cl    s     6.724099   -0.194667    6.272050   -2.485000
   248  Cl    s    -8.989523   -2.015304   -0.159513   -2.485000
   249  Cl    s     6.245454    6.781283   -0.159523   -2.485000
   250  Cl    s    -7.058617   -5.349039   -2.693977   -2.485000
   251  Cl    s     8.167148    3.442009   -2.693656   -2.485000
   252  Cl    s    -6.331936    6.803293   -0.178595   -2.485000
   253  Cl    s    -2.719652    8.887946   -0.178466   -2.485000
   254  Cl    s    -0.767003   -1.731229   -9.152954   -2.485000
   255  Cl    s    -7.067544    5.524949   -2.697497   -2.485000
   256  Cl    s    -1.244867    8.886937   -2.697404   -2.485000
   257  Cl    s    -1.252245    1.623223   -9.152681   -2.485000
   258  Cl    s     6.247593    3.159504    6.275996   -2.485000
   259  Cl    s     3.095570   -5.920839   -6.626760   -2.485000
   260  Cl    s    -0.766136    8.595589    3.741528   -2.485000
   261  Cl    s    -3.190726   -5.918155   -6.625271   -2.485000
   262  Cl    s    -3.914693   -7.736984    3.750588   -2.485000
   263  Cl    s    -6.329917    3.161604    6.265321   -2.485000
   264  Cl    s     2.369487   -0.467992   -9.146237   -2.485000
   265  Cl    s    -5.872061   -7.473572   -0.158825   -2.485000
   266  Cl    s     9.413855    1.352071   -0.158624   -2.485000
   267  Cl    s     6.246405   -3.546575    6.277423   -2.485000
   268  Cl    s    -9.481669    1.332203   -0.166637   -2.485000
   269  Cl    s     3.592688    8.880361   -0.166804   -2.485000
   270  Cl    s    -6.331139   -3.550401    6.268045   -2.485000
   271  Cl    s    -5.833274   -3.822074   -6.616265   -2.485000
   272  Cl    s    -0.041888    7.341983    6.267698   -2.485000
   273  Cl    s     0.446321    7.063822   -6.622288   -2.485000
   274  Cl    s    -0.053295   -7.161600   -6.616394   -2.485000
   275  Cl    s    -0.764658   -8.981989    3.741528   -2.485000
   276  Cl    s     6.236349    3.723900   -6.621271   -2.485000
   277  Cl    s    -6.332133    3.714515   -6.624665   -2.485000
   278  Cl    s    -7.542228    5.252451    3.749970   -2.485000
   279  Cl    s     8.664334    3.153112    3.748500   -2.485000
   280  Cl    s    -0.772161   -9.548487   -2.696301   -2.485000
   281  Cl    s     8.660458   -4.102589   -2.696277   -2.485000
   282  Cl    s     3.099553   -9.551377   -0.177433   -2.485000
   283  Cl    s     6.727615   -7.457332   -0.177356   -2.485000
   284  Cl    s    -3.185170   -9.537010   -0.187073   -2.485000
   285  Cl    s     9.857468   -2.007341   -0.187219   -2.485000
   286  Cl    s     8.665925   -3.541538    3.748236   -2.485000
   287  Cl    s    -7.543140   -5.640151    3.750144   -2.485000
   288  Cl    s     6.724627   -3.823805   -6.626915   -2.485000
--------------------------------------------------------------------------------


  Final derivatives for region 1 :

--------------------------------------------------------------------------------
   No.  Atomic          x             y             z            Radius
        Label       (eV/Angs)     (eV/Angs)     (eV/Angs)       (eV/Angs)
--------------------------------------------------------------------------------
     1  Sc    c      -0.000181     -0.000338      0.001229      0.000000
     2  Sc    c       0.000667     -0.000440      0.000454      0.000000
     3  Cl    c      -0.001778      0.001701     -0.003945      0.000000
     4  Cl    c      -0.000524      0.000169      0.000037      0.000000
     5  Cl    c       0.000055      0.000645      0.000118      0.000000
     6  Cl    c      -0.000722     -0.000763      0.000292      0.000000
     7  Cl    c       0.001185      0.000235      0.000441      0.000000
     8  Cl    c      -0.000132     -0.000469     -0.000477      0.000000
     9  Cl    c       0.000178      0.000003     -0.000395      0.000000
    10  Cl    c       0.000076     -0.000388      0.000072      0.000000
    11  Cl    c       0.000318     -0.000269      0.000085      0.000000
    12  Cl    c      -0.000043      0.000139      0.000325      0.000000
    13  Cl    c       0.000140     -0.000038      0.000286      0.000000
    14  Cl    c      -0.000033     -0.000169      0.000289      0.000000
    15  Sc    c      -0.000337     -0.000556     -0.000021      0.000000
    16  Sc    c       0.000711     -0.000099     -0.000176      0.000000
    17  Cl    c      -0.000505     -0.000106     -0.000159      0.000000
    18  Cl    c       0.000406      0.000366     -0.000341      0.000000
    19  Cl    c       0.000097      0.000131      0.000167      0.000000
    20  Sc    c       0.000079      0.000098      0.000382      0.000000
    21  Cl    c       0.000103     -0.000190     -0.000127      0.000000
    22  Sc    c       0.000080     -0.000135      0.000340      0.000000
    23  Cl    c      -0.000182     -0.000012      0.000146      0.000000
    24  Sc    c      -0.000427      0.000043      0.000040      0.000000
    25  Sc    c       0.000148      0.000575     -0.000068      0.000000
    26  Cl    c       0.000076     -0.000123      0.000127      0.000000
    27  Sc    c       0.000073     -0.000382     -0.000022      0.000000
    28  Sc    c       0.000302     -0.000270     -0.000063      0.000000
    29  Cl    c      -0.000184      0.000192     -0.000107      0.000000
    30  Cl    c      -0.000058      0.000237     -0.000110      0.000000
    31  Cl    c      -0.000119      0.000084      0.000101      0.000000
    32  Cl    c      -0.000100      0.000171      0.000034      0.000000
    33  Cl    c      -0.000153     -0.000079      0.000006      0.000000
    34  Cl    c      -0.000022     -0.000199     -0.000077      0.000000
    35  Cl    c       0.000156     -0.000056     -0.000087      0.000000
    36  Cl    c       0.000157      0.000098      0.000028      0.000000
    37  Cl    c      -0.000073     -0.000128      0.000012      0.000000
    38  Cl    c       0.000192     -0.000005      0.000009      0.000000
    39  Cl    c       0.000077     -0.000152      0.000024      0.000000
    40  Cl    c      -0.000210      0.000028     -0.000086      0.000000
    41  Cl    c       0.000081      0.000176     -0.000108      0.000000
    42  Sc    c      -0.000080      0.000149      0.000256      0.000000
    43  Cl    c       0.000054     -0.000049     -0.000234      0.000000
    44  Cl    c      -0.000027      0.000125      0.000106      0.000000
    45  Cl    c      -0.000099     -0.000096      0.000070      0.000000
    46  Cl    c       0.000009     -0.000009      0.000140      0.000000
    47  Sc    c      -0.000074     -0.000167      0.000212      0.000000
    48  Cl    c       0.000119      0.000037      0.000081      0.000000
    49  Cl    c      -0.000026     -0.000116      0.000070      0.000000
    50  Cl    c       0.000106     -0.000046      0.000075      0.000000
    51  Cl    c      -0.000158      0.000079      0.000029      0.000000
    52  Cl    c      -0.000010      0.000226      0.000048      0.000000
    53  Cl    c      -0.000098      0.000058     -0.000205      0.000000
    54  Cl    c       0.000001      0.000048      0.000109      0.000000
    55  Cl    c       0.000030      0.000102     -0.000163      0.000000
    56  Cl    c      -0.000087     -0.000083     -0.000130      0.000000
    57  Sc    c      -0.000176      0.000043      0.000170      0.000000
    58  Cl    c       0.000079     -0.000031     -0.000110      0.000000
    59  Cl    c      -0.000085     -0.000035     -0.000007      0.000000
    60  Cl    c      -0.000048      0.000023      0.000108      0.000000
    61  Cl    c       0.000088      0.000063     -0.000012      0.000000
    62  Cl    c       0.000086      0.000037     -0.000072      0.000000
    63  Sc    c      -0.000166     -0.000071      0.000155      0.000000
    64  Sc    c       0.000133      0.000101      0.000163      0.000000
    65  Cl    c       0.000047      0.000024      0.000100      0.000000
    66  Cl    c       0.000015     -0.000085     -0.000120      0.000000
    67  Cl    c      -0.000008     -0.000112      0.000013      0.000000
    68  Cl    c       0.000112     -0.000057      0.000008      0.000000
    69  Cl    c       0.000001     -0.000054      0.000095      0.000000
    70  Sc    c      -0.000234      0.000200     -0.000017      0.000000
    71  Sc    c      -0.000084      0.000304     -0.000038      0.000000
    72  Cl    c      -0.000046     -0.000034      0.000099      0.000000
    73  Cl    c       0.000044     -0.000033      0.000095      0.000000
    74  Sc    c       0.000114     -0.000108      0.000144      0.000000
    75  Sc    c      -0.000151     -0.000130     -0.000006      0.000000
    76  Sc    c       0.000195      0.000069     -0.000061      0.000000
    77  Cl    c      -0.000094      0.000021     -0.000026      0.000000
    78  Cl    c       0.000026      0.000091     -0.000072      0.000000
    79  Sc    c      -0.000062     -0.000037     -0.000300      0.000000
    80  Cl    c      -0.000089      0.000015      0.000040      0.000000
    81  Cl    c       0.000068      0.000063      0.000040      0.000000
    82  Cl    c      -0.000057     -0.000038     -0.000017      0.000000
    83  Sc    c       0.000060     -0.000071     -0.000225      0.000000
    84  Cl    c       0.000059      0.000032     -0.000027      0.000000
    85  Cl    c      -0.000081     -0.000028      0.000033      0.000000
    86  Cl    c       0.000028     -0.000097     -0.000027      0.000000
    87  Cl    c       0.000063     -0.000063     -0.000034      0.000000
    88  Cl    c       0.000031      0.000082      0.000046      0.000000
    89  Sc    c      -0.000170     -0.000040      0.000008      0.000000
    90  Sc    c       0.000163      0.000173     -0.000049      0.000000
    91  Cl    c       0.000055     -0.000062      0.000039      0.000000
    92  Cl    c      -0.000054      0.000103     -0.000034      0.000000
    93  Cl    c       0.000020     -0.000074      0.000035      0.000000
    94  Cl    c      -0.000043      0.000079     -0.000084      0.000000
    95  Cl    c       0.000049      0.000051     -0.000038      0.000000
    96  Sc    c      -0.000043      0.000104     -0.000221      0.000000
    97  Cl    c      -0.000026      0.000047      0.000065      0.000000
    98  Cl    c      -0.000057     -0.000005      0.000060      0.000000
    99  Sc    c      -0.000037      0.000128      0.000107      0.000000
   100  Cl    c      -0.000083     -0.000016     -0.000055      0.000000
   101  Cl    c      -0.000040      0.000068      0.000040      0.000000
   102  Cl    c       0.000065      0.000003     -0.000049      0.000000
   103  Sc    c       0.000110      0.000006     -0.000139      0.000000
   104  Cl    c       0.000077     -0.000002      0.000029      0.000000
   105  Cl    c       0.000031      0.000045      0.000061      0.000000
   106  Cl    c      -0.000023     -0.000048      0.000053      0.000000
   107  Cl    c      -0.000031     -0.000068     -0.000018      0.000000
   108  Cl    c       0.000069     -0.000006     -0.000026      0.000000
   109  Sc    c       0.000128      0.000028      0.000086      0.000000
   110  Cl    c      -0.000035     -0.000061     -0.000056      0.000000
[...]
    208 z         14.168915     14.152838    -0.016077    Cartesian   -0.11
    209 x         -3.870942     -3.850429     0.020513    Cartesian   -0.53
    209 y         -0.000261     -0.005484    -0.005222    Cartesian 1997.12
    209 z          1.263142      1.274526     0.011384    Cartesian    0.90
    210 x          1.935244      1.941442     0.006198    Cartesian    0.32
    210 y         -3.914802     -3.907143     0.007659    Cartesian   -0.20
    210 z         14.168915     14.160359    -0.008556    Cartesian   -0.06
    211 x         -4.358393     -4.351574     0.006819    Cartesian   -0.16
    211 y         -3.914802     -3.905719     0.009082    Cartesian   -0.23
    211 z         14.168915     14.158551    -0.010365    Cartesian   -0.07
    212 x         -0.724123     -0.721827     0.002296    Cartesian   -0.32
    212 y         -9.084344     -9.089193    -0.004849    Cartesian    0.05
    212 z          7.716029      7.705321    -0.010708    Cartesian   -0.14
    213 x          5.082063      5.084983     0.002920    Cartesian    0.06
    213 y         -5.731618     -5.736687    -0.005068    Cartesian    0.09
    213 z          7.716029      7.705911    -0.010118    Cartesian   -0.13
    214 x          1.935697      1.926596    -0.009102    Cartesian   -0.47
    214 y         -3.352203     -3.336802     0.015401    Cartesian   -0.46
    214 z          1.263142      1.274067     0.010925    Cartesian    0.86
    215 x         -7.505211     -7.511650    -0.006438    Cartesian    0.09
    215 y         -5.731618     -5.717591     0.014027    Cartesian   -0.24
    215 z          7.716029      7.730891     0.014862    Cartesian    0.19
    216 x         -4.357940     -4.357212     0.000728    Cartesian   -0.02
    216 y         -3.352203     -3.338958     0.013245    Cartesian   -0.40
    216 z          1.263142      1.268924     0.005781    Cartesian    0.46
    217 x          5.569514      5.560699    -0.008816    Cartesian   -0.16
    217 y          1.816555      1.829414     0.012859    Cartesian    0.71
    217 z          7.716029      7.731352     0.015324    Cartesian    0.20
    218 x         -1.211121     -1.212139    -0.001018    Cartesian    0.08
    218 y          2.098247      2.095968    -0.002279    Cartesian   -0.11
    218 z          1.263142      1.265259     0.002117    Cartesian    0.17
    219 x         -0.724123     -0.720081     0.004042    Cartesian   -0.56
    219 y         -5.450711     -5.446212     0.004499    Cartesian   -0.08
    219 z          1.263142      1.265514     0.002372    Cartesian    0.19
    220 x         -8.229334     -8.335132    -0.105798    Cartesian    1.29
    220 y         -0.281430     -0.234361     0.047069    Cartesian  -16.72
    220 z          5.189744      5.173809    -0.015936    Cartesian   -0.31
    221 x          1.211121      1.223577     0.012455    Cartesian    1.03
    221 y          5.169020      5.282873     0.113853    Cartesian    2.20
    221 z          5.189744      5.173793    -0.015952    Cartesian   -0.31
    222 x          2.422696      2.419857    -0.002839    Cartesian   -0.12
    222 y         -0.000261      0.000644     0.000906    Cartesian -346.35
    222 z          1.263142      1.264661     0.001519    Cartesian    0.12
    223 x          0.724123      0.752431     0.028308    Cartesian    3.91
    223 y         -9.083821     -9.114765    -0.030944    Cartesian    0.34
    223 z          5.189744      5.177488    -0.012256    Cartesian   -0.24
    224 x          4.358393      4.370741     0.012348    Cartesian    0.28
    224 y         -6.986098     -7.026407    -0.040309    Cartesian    0.58
    224 z          5.189744      5.177968    -0.011777    Cartesian   -0.23
    225 x          3.870942      3.861539    -0.009402    Cartesian   -0.24
    225 y          3.633895      3.636828     0.002933    Cartesian    0.08
    225 z         11.642631     11.635594    -0.007037    Cartesian   -0.06
    226 x         -8.228881     -8.223384     0.005498    Cartesian   -0.07
    226 y          0.281169      0.282384     0.001215    Cartesian    0.43
    226 z         11.642631     11.632449    -0.010183    Cartesian   -0.09
    227 x         -8.716333     -8.709453     0.006880    Cartesian   -0.08
    227 y         -3.633372     -3.630778     0.002594    Cartesian   -0.07
    227 z          5.189744      5.200537     0.010792    Cartesian    0.21
    228 x          4.358393      4.352714    -0.005679    Cartesian   -0.13
    228 y          3.914802      3.910113    -0.004689    Cartesian   -0.12
    228 z          5.189744      5.200704     0.010959    Cartesian    0.21
    229 x         -5.082516     -5.091589    -0.009073    Cartesian    0.18
    229 y          5.169020      5.185684     0.016665    Cartesian    0.32
    229 z          5.189744      5.171053    -0.018692    Cartesian   -0.36
    230 x         -8.229334     -8.223453     0.005881    Cartesian   -0.07
    230 y         -3.915063     -3.914784     0.000279    Cartesian   -0.01
    230 z         11.642631     11.635265    -0.007366    Cartesian   -0.06
    231 x          3.870942      3.864810    -0.006131    Cartesian   -0.16
    231 y         -7.267005     -7.269266    -0.002262    Cartesian    0.03
    231 z         11.642631     11.637794    -0.004837    Cartesian   -0.04
    232 x         -7.017760     -7.013212     0.004548    Cartesian   -0.06
    232 y         -1.817078     -1.817252    -0.000174    Cartesian    0.01
    232 z         14.168915     14.161549    -0.007367    Cartesian   -0.05
    233 x          1.211574      1.214153     0.002579    Cartesian    0.21
    233 y          5.731618      5.729943    -0.001675    Cartesian   -0.03
    233 z         11.642631     11.638981    -0.003650    Cartesian   -0.03
    234 x         -3.870942     -3.876694    -0.005753    Cartesian    0.15
    234 y          3.633372      3.630544    -0.002827    Cartesian   -0.08
    234 z         14.168915     14.160698    -0.008218    Cartesian   -0.06
    235 x          1.935244      1.924040    -0.011204    Cartesian   -0.58
    235 y          3.352464      3.334775    -0.017689    Cartesian   -0.53
    235 z          1.263142      1.273314     0.010172    Cartesian    0.81
    236 x         -3.870942     -3.874808    -0.003867    Cartesian    0.10
    236 y         -7.267528     -7.266969     0.000559    Cartesian   -0.01
    236 z         14.168915     14.166251    -0.002665    Cartesian   -0.02
    237 x         -4.358393     -4.358400    -0.000007    Cartesian    0.00
    237 y          3.352464      3.335415    -0.017049    Cartesian   -0.51
    237 z          1.263142      1.272860     0.009718    Cartesian    0.77
    238 x          1.211121      1.211068    -0.000053    Cartesian   -0.00
    238 y         -9.365513     -9.360219     0.005294    Cartesian   -0.06
    238 z         11.642631     11.643001     0.000370    Cartesian    0.00
    239 x          2.422696      2.412809    -0.009887    Cartesian   -0.41
    239 y          3.633372      3.632982    -0.000390    Cartesian   -0.01
    239 z         14.168915     14.160681    -0.008234    Cartesian   -0.06
    240 x          7.017760      7.003766    -0.013994    Cartesian   -0.20
    240 y         -1.816555     -1.816458     0.000097    Cartesian   -0.01
    240 z         11.642631     11.636147    -0.006484    Cartesian   -0.06
    241 x         -5.569514     -5.567313     0.002201    Cartesian   -0.04
    241 y         -9.083821     -9.059087     0.024734    Cartesian   -0.27
    241 z          5.189744      5.212637     0.022892    Cartesian    0.44
    242 x          7.505211      7.482465    -0.022746    Cartesian   -0.30
    242 y         -1.535648     -1.525017     0.010631    Cartesian   -0.69
    242 z          5.189744      5.212838     0.023093    Cartesian    0.44
    243 x          5.082063      5.071566    -0.010497    Cartesian   -0.21
    243 y         -2.097985     -2.100552    -0.002567    Cartesian    0.12
    243 z          1.263142      1.270051     0.006909    Cartesian    0.55
    244 x         -5.082063     -5.078043     0.004020    Cartesian   -0.08
    244 y          5.731618      5.728189    -0.003429    Cartesian   -0.06
    244 z         11.642631     11.639176    -0.003455    Cartesian   -0.03
    245 x          2.422696      2.414025    -0.008670    Cartesian   -0.36
    245 y         -7.267528     -7.266458     0.001070    Cartesian   -0.01
    245 z         14.168915     14.162051    -0.006864    Cartesian   -0.05
    246 x         -7.505211     -7.497370     0.007841    Cartesian   -0.10
    246 y         -2.097985     -2.098677    -0.000692    Cartesian    0.03
    246 z          1.263142      1.266001     0.002859    Cartesian    0.23
    247 x          5.569514      5.559146    -0.010368    Cartesian   -0.19
    247 y         -1.817078     -1.817084    -0.000006    Cartesian    0.00
    247 z         14.168915     14.163285    -0.005630    Cartesian   -0.04
    248 x        -10.164579    -10.154475     0.010104    Cartesian   -0.10
    248 y         -3.633895     -3.637721    -0.003827    Cartesian    0.11
    248 z          7.716029      7.731722     0.015693    Cartesian    0.20
    249 x          5.082063      5.080502    -0.001561    Cartesian   -0.03
    249 y          5.169281      5.158865    -0.010416    Cartesian   -0.20
    249 z          7.716029      7.731712     0.015683    Cartesian    0.20
    250 x         -8.228881     -8.223569     0.005312    Cartesian   -0.06
    250 y         -6.986098     -6.971457     0.014641    Cartesian   -0.21
    250 z          5.189744      5.197258     0.007513    Cartesian    0.14
    251 x          7.017760      7.002196    -0.015564    Cartesian   -0.22
    251 y          1.817078      1.819592     0.002514    Cartesian    0.14
    251 z          5.189744      5.197579     0.007835    Cartesian    0.15
    252 x         -7.505211     -7.496888     0.008323    Cartesian   -0.11
    252 y          5.169281      5.180876     0.011595    Cartesian    0.22
    252 z          7.716029      7.712640    -0.003389    Cartesian   -0.04
    253 x         -3.870942     -3.884604    -0.013662    Cartesian    0.35
    253 y          7.267005      7.265529    -0.001476    Cartesian   -0.02
    253 z          7.716029      7.712769    -0.003259    Cartesian   -0.04
    254 x         -1.935244     -1.931955     0.003290    Cartesian   -0.17
    254 y         -3.352464     -3.353646    -0.001182    Cartesian    0.04
    254 z         -1.263142     -1.261719     0.001423    Cartesian   -0.11
    255 x         -8.228881     -8.232496    -0.003615    Cartesian    0.04
    255 y          3.914802      3.902532    -0.012270    Cartesian   -0.31
    255 z          5.189744      5.193738     0.003993    Cartesian    0.08
    256 x         -2.422696     -2.409819     0.012876    Cartesian   -0.53
    256 y          7.267528      7.264520    -0.003008    Cartesian   -0.04
    256 z          5.189744      5.193831     0.004087    Cartesian    0.08
    257 x         -2.422696     -2.417197     0.005499    Cartesian   -0.23
    257 y          0.000261      0.000806     0.000545    Cartesian  208.31
    257 z         -1.263142     -1.261446     0.001696    Cartesian   -0.13
    258 x          5.082063      5.082641     0.000578    Cartesian    0.01
    258 y          1.535648      1.537087     0.001439    Cartesian    0.09
    258 z         14.168915     14.167231    -0.001685    Cartesian   -0.01
    259 x          1.935244      1.930618    -0.004626    Cartesian   -0.24
    259 y         -7.548435     -7.543256     0.005178    Cartesian   -0.07
    259 z          1.263142      1.264475     0.001333    Cartesian    0.11
    260 x         -1.935697     -1.931089     0.004609    Cartesian   -0.24
    260 y          6.985836      6.973171    -0.012665    Cartesian   -0.18
    260 z         11.642631     11.632763    -0.009868    Cartesian   -0.08
    261 x         -4.358393     -4.355679     0.002714    Cartesian   -0.06
    261 y         -7.548435     -7.540572     0.007863    Cartesian   -0.10
    261 z          1.263142      1.265965     0.002822    Cartesian    0.22
    262 x         -5.082516     -5.079645     0.002871    Cartesian   -0.06
    262 y         -9.365513     -9.359401     0.006112    Cartesian   -0.07
    262 z         11.642631     11.641823    -0.000809    Cartesian   -0.01
    263 x         -7.505211     -7.494870     0.010342    Cartesian   -0.14
    263 y          1.535648      1.539187     0.003539    Cartesian    0.23
    263 z         14.168915     14.156556    -0.012359    Cartesian   -0.09
    264 x          1.211121      1.204535    -0.006586    Cartesian   -0.54
    264 y         -2.098247     -2.090410     0.007837    Cartesian   -0.37
    264 z         -1.263142     -1.255002     0.008140    Cartesian   -0.64
    265 x         -7.017760     -7.037013    -0.019253    Cartesian    0.27
    265 y         -9.084344     -9.095990    -0.011645    Cartesian    0.13
    265 z          7.716029      7.732410     0.016382    Cartesian    0.21
    266 x          8.228881      8.248902     0.020021    Cartesian    0.24
    266 y         -0.281169     -0.270346     0.010823    Cartesian   -3.85
    266 z          7.716029      7.732611     0.016582    Cartesian    0.21
    267 x          5.082516      5.081453    -0.001063    Cartesian   -0.02
    267 y         -5.169020     -5.168992     0.000028    Cartesian   -0.00
    267 z         14.168915     14.168658    -0.000257    Cartesian   -0.00
    268 x        -10.652030    -10.646622     0.005408    Cartesian   -0.05
    268 y         -0.281169     -0.290214    -0.009045    Cartesian    3.22
    268 z          7.716029      7.724598     0.008570    Cartesian    0.11
    269 x          2.422696      2.427735     0.005040    Cartesian    0.21
    269 y          7.267005      7.257944    -0.009060    Cartesian   -0.12
    269 z          7.716029      7.724431     0.008402    Cartesian    0.11
    270 x         -7.504758     -7.496091     0.008668    Cartesian   -0.12
    270 y         -5.169020     -5.172818    -0.003799    Cartesian    0.07
    270 z         14.168915     14.159280    -0.009635    Cartesian   -0.07
    271 x         -7.017760     -6.998226     0.019534    Cartesian   -0.28
    271 y         -5.450711     -5.444492     0.006220    Cartesian   -0.11
    271 z          1.263142      1.274970     0.011828    Cartesian    0.94
    272 x         -1.211121     -1.206840     0.004282    Cartesian   -0.35
    272 y          5.731880      5.719566    -0.012313    Cartesian   -0.21
    272 z         14.168915     14.158933    -0.009982    Cartesian   -0.07
    273 x         -0.724123     -0.718631     0.005492    Cartesian   -0.76
    273 y          5.450188      5.441405    -0.008784    Cartesian   -0.16
    273 z          1.263142      1.268947     0.005805    Cartesian    0.46
    274 x         -1.211121     -1.218247    -0.007126    Cartesian    0.59
    274 y         -8.802653     -8.784017     0.018635    Cartesian   -0.21
    274 z          1.263142      1.274841     0.011699    Cartesian    0.93
    275 x         -1.935244     -1.929610     0.005634    Cartesian   -0.29
    275 y        -10.619731    -10.604406     0.015325    Cartesian   -0.14
    275 z         11.642631     11.632763    -0.009868    Cartesian   -0.08
    276 x          5.082516      5.071397    -0.011119    Cartesian   -0.22
    276 y          2.098247      2.101483     0.003236    Cartesian    0.15
    276 z          1.263142      1.269964     0.006822    Cartesian    0.54
    277 x         -7.504758     -7.497085     0.007674    Cartesian   -0.10
    277 y          2.098247      2.092098    -0.006149    Cartesian   -0.29
    277 z          1.263142      1.266570     0.003428    Cartesian    0.27
    278 x         -8.716333     -8.707180     0.009153    Cartesian   -0.11
    278 y          3.633895      3.630034    -0.003861    Cartesian   -0.11
    278 z         11.642631     11.641205    -0.001426    Cartesian   -0.01
    279 x          7.504758      7.499381    -0.005377    Cartesian   -0.07
    279 y          1.535386      1.530695    -0.004691    Cartesian   -0.31
    279 z         11.642631     11.639735    -0.002896    Cartesian   -0.02
    280 x         -1.935697     -1.937114    -0.001416    Cartesian    0.07
    280 y        -11.182329    -11.170904     0.011425    Cartesian   -0.10
    280 z          5.189744      5.194934     0.005190    Cartesian    0.10
    281 x          7.504758      7.495505    -0.009253    Cartesian   -0.12
    281 y         -5.731880     -5.725006     0.006874    Cartesian   -0.12
    281 z          5.189744      5.194958     0.005213    Cartesian    0.10
    282 x          1.935244      1.934601    -0.000644    Cartesian   -0.03
    282 y        -11.182068    -11.173794     0.008274    Cartesian   -0.07
    282 z          7.716029      7.713802    -0.002227    Cartesian   -0.03
    283 x          5.569514      5.562663    -0.006851    Cartesian   -0.12
    283 y         -9.084344     -9.079749     0.004595    Cartesian   -0.05
    283 z          7.716029      7.713879    -0.002149    Cartesian   -0.03
    284 x         -4.358393     -4.350122     0.008271    Cartesian   -0.19
    284 y        -11.182068    -11.159428     0.022640    Cartesian   -0.20
    284 z          7.716029      7.704162    -0.011867    Cartesian   -0.15
    285 x          8.716333      8.692516    -0.023817    Cartesian   -0.27
    285 y         -3.633895     -3.629759     0.004136    Cartesian   -0.11
    285 z          7.716029      7.704016    -0.012013    Cartesian   -0.16
    286 x          7.505211      7.500972    -0.004239    Cartesian   -0.06
    286 y         -5.169281     -5.163955     0.005326    Cartesian   -0.10
    286 z         11.642631     11.639471    -0.003160    Cartesian   -0.03
    287 x         -8.716333     -8.708093     0.008240    Cartesian   -0.09
    287 y         -7.267005     -7.262569     0.004436    Cartesian   -0.06
    287 z         11.642631     11.641379    -0.001252    Cartesian   -0.01
    288 x          5.569514      5.559674    -0.009840    Cartesian   -0.18
    288 y         -5.450711     -5.446223     0.004489    Cartesian   -0.08
    288 z          1.263142      1.264320     0.001178    Cartesian    0.09
--------------------------------------------------------------------------------


  Time to end of optimisation  =       65.1196 seconds


  Peak dynamic memory used =      15.82 MB 


  Timing analysis for GULP :

--------------------------------------------------------------------------------
  Task / Subroutine                                          Time (Seconds)
--------------------------------------------------------------------------------
  Calculation of reciprocal space energy and derivatives          0.0043
  Calculation of reciprocal space energy using symmetry           0.0454
  Calculation of real space energy and derivatives                0.0221
  Calculation of real space energy using symmetry                 0.8350
  Calculation for region 1 energy and derivatives (2-b)          12.6248
  Calculation for region 2a energy                               50.1425
  Calculation for region 2b energy                                0.0222
  Calculation and manipulation of Hessian matrix                  0.0032
  Calculation of matrix inversion                                 1.2563
  Symmetry generation of equivalent positions                     0.0019
  Global summation overhead                                       0.0003
--------------------------------------------------------------------------------
  Total CPU time                                                 65.1197
--------------------------------------------------------------------------------


  Dump file written as ScCl3.grs



  **** GULP has completed with   2 warnings - beware! ****

  Job Finished at 11:34.01 18th August     2021                               

