********************************************************************************
*                       GENERAL UTILITY LATTICE PROGRAM                        *
*                                 Julian Gale                                  *
*                       Curtin Institute for Computation                       *
*                    School of Molecular and Life Sciences                     *
*                    Curtin University, Western Australia                      *
********************************************************************************
* Version = 5.2.0 * Last modified =  10th September 2020                       *
********************************************************************************
*  optimise     - perform optimisation run                                     *
*  conp         - constant pressure calculation                                *
*  property     - calculate properties for final geometry                      *
*  defect       - perform defect calculation after bulk run                    *
*  compare      - compare initial and final structures                         *
********************************************************************************

  Job Started  at 11:32.54 18th August     2021                               

  Number of CPUs =     1


  Total number of configurations input =      1

********************************************************************************
*  Input for Configuration =   1                                               *
********************************************************************************

  Formula = Sc2Cl6                                                      

  Number of irreducible atoms/shells =       3


  Total number atoms/shells =      14

  Dimensionality = 3               :  Bulk   


  Symmetry :

  Crystal family                   :  Hexagonal   
  Crystal class  (Groth - 1921)    :  Trigonal Rhombohedral                

  Space group (centrosymmetric)    :  R -3            

  Patterson group                  :  R -3     

  Cartesian lattice vectors (Angstroms) :

        3.246588    1.874418    6.441540
       -3.246588    1.874418    6.441540
        0.000000   -3.748837    6.441540

  Cell parameters (Angstroms/Degrees):

  a =       7.4530    alpha =  51.6480
  b =       7.4530    beta  =  51.6480
  c =       7.4530    gamma =  51.6480

  Initial cell volume =         235.198534 Angs**3

  Temperature of configuration =   0.00     K 

  Pressure of configuration =         0.000 GPa 

  Fractional coordinates of asymmetric unit :

--------------------------------------------------------------------------------
   No.  Atomic       x           y          z         Charge      Occupancy
        Label      (Frac)      (Frac)     (Frac)        (e)         (Frac)  
--------------------------------------------------------------------------------
      1 Sc    c    0.333900    0.333900    0.333900 *   3.00000    1.000000    
      2 Cl    c    0.073700 *  0.443900 *  0.705300 *   1.48500    1.000000    
      3 Cl    s    0.073700 *  0.443900 *  0.705300 *  -2.48500    1.000000    
--------------------------------------------------------------------------------


  Constraints : 

--------------------------------------------------------------------------------
  Constraint no.      Unconstrained     Constrained    Coefficient    Offset
                         Variable         Variable
--------------------------------------------------------------------------------
           1              Strain 1        Strain 2       1.00000      0.0000
--------------------------------------------------------------------------------


********************************************************************************
*  General input information                                                   *
********************************************************************************

  Species output for all configurations : 

--------------------------------------------------------------------------------
  Species    Type    Atomic    Atomic    Charge       Radii (Angs)     Library
                     Number     Mass       (e)     Cova   Ionic  VDW   Symbol
--------------------------------------------------------------------------------
    Sc       Core       21      44.96   3.000000   1.440  0.000  2.150          
    Cl       Core       17      35.45   1.485000   0.990  0.000  1.650          
    Cl       Shell      17       0.00  -2.485000   0.990  0.000  1.650          
--------------------------------------------------------------------------------


  Lattice summation method               =    Ewald          (3-D)
                                         =    Parry          (2-D)
                                         =    Saunders et al (1-D)
  Accuracy factor for lattice sums       =   12.000


  Analytic derivatives to be used

  Time limit = Infinity

  Maximum range for interatomic potentials =    100000.000000 Angstroms

  General interatomic potentials :

--------------------------------------------------------------------------------
Atom  Types   Potential      Parameter       Value         Units   Cutoffs(Ang)
  1     2                                                            Min /  Max 
--------------------------------------------------------------------------------
Cl   c Cl   s Spring (c-s)  Spring k 2       29.380000    eV*Ang^-2 0.000  0.800
                            Spring k 4       0.0000000    eV*Ang^-4 
--------------------------------------------------------------------------------
Sc   c Cl   s Buckingham    Buckingham A     12131.350    eV        0.000 12.000
                            Buckingham rho  0.25070000    Ang       
                            Buckingham C     0.0000000    eV*Ang^6  
--------------------------------------------------------------------------------
Cl   s Cl   s Buckingham    Buckingham A     1227.2000    eV        0.000 12.000
                            Buckingham rho  0.32100000    Ang       
                            Buckingham C     14.530000    eV*Ang^6  
--------------------------------------------------------------------------------

********************************************************************************
*  Output for configuration   1                                                *
********************************************************************************


  Components of energy : 

--------------------------------------------------------------------------------
  Interatomic potentials     =           6.77737779 eV    
  Monopole - monopole (real) =         -30.86300284 eV    
  Monopole - monopole (recip)=         -65.52201623 eV    
  Monopole - monopole (total)=         -96.38501907 eV    
--------------------------------------------------------------------------------
  Total lattice energy : 
    Primitive unit cell      =         -89.60764128 eV    
    Non-primitive unit cell  =        -268.82292384 eV    
--------------------------------------------------------------------------------
  Total lattice energy (in kJmol-1): 
    Primitive unit cell      =           -8645.7676 kJ/(mole unit cells)
    Non-primitive unit cell  =          -25937.3028 kJ/(mole unit cells)
--------------------------------------------------------------------------------


  Number of variables =        9

  Maximum number of calculations  =          1000
  Maximum Hessian update interval =            10
  Maximum step size               =   1.000000000
  Maximum parameter tolerance     =   0.000010000
  Maximum function  tolerance     =   0.000010000
  Maximum gradient  tolerance     =   0.001000000
  Maximum gradient  component     =   0.010000000

  Symmetry constrained optimisation

  Symmetry used for second derivatives

  Cell parameters to be optimised using strains

  Newton-Raphson optimiser to be used

  BFGS hessian update to be used

  Lower half triangular hessian to be used

  Start of bulk optimisation :

  Cycle:      0 Energy:       -89.607641  Gnorm:    194.660938  CPU:    0.006
  ** Hessian calculated **
  Cycle:      1 Energy:       -99.336245  Gnorm:     16.922396  CPU:    0.010
  Cycle:      2 Energy:       -99.561570  Gnorm:      7.561347  CPU:    0.016
  Cycle:      3 Energy:       -99.729576  Gnorm:      4.412393  CPU:    0.022
  Cycle:      4 Energy:       -99.829400  Gnorm:      2.218678  CPU:    0.029
  Cycle:      5 Energy:       -99.844572  Gnorm:      0.723795  CPU:    0.034
  Cycle:      6 Energy:       -99.846381  Gnorm:      0.448826  CPU:    0.040
  Cycle:      7 Energy:       -99.846853  Gnorm:      0.344817  CPU:    0.045
  Cycle:      8 Energy:       -99.849123  Gnorm:      0.319075  CPU:    0.053
  Cycle:      9 Energy:       -99.851112  Gnorm:      0.253552  CPU:    0.060
  Cycle:     10 Energy:       -99.852597  Gnorm:      0.161985  CPU:    0.068
  ** Hessian calculated **
  Cycle:     11 Energy:       -99.854095  Gnorm:      0.114649  CPU:    0.079
  Cycle:     12 Energy:       -99.855517  Gnorm:      0.062367  CPU:    0.086
  Cycle:     13 Energy:       -99.856271  Gnorm:      0.091299  CPU:    0.093
  Cycle:     14 Energy:       -99.856398  Gnorm:      0.057833  CPU:    0.100
  Cycle:     15 Energy:       -99.709969  Gnorm:      9.382415  CPU:    0.122
  ** Hessian calculated **
  Cycle:     16 Energy:       -99.834592  Gnorm:      3.493936  CPU:    0.131
  Cycle:     17 Energy:       -99.855984  Gnorm:      0.183406  CPU:    0.136
  Cycle:     18 Energy:       -99.856377  Gnorm:      0.024886  CPU:    0.142
  ** Hessian calculated **
  Cycle:     19 Energy:       -99.856378  Gnorm:      0.010051  CPU:    0.149
  Cycle:     20 Energy:       -99.856379  Gnorm:      0.013393  CPU:    0.154
  Cycle:     21 Energy:       -99.856379  Gnorm:      0.009613  CPU:    0.159
  Cycle:     22 Energy:       -99.856380  Gnorm:      0.011718  CPU:    0.164
  Cycle:     23 Energy:       -99.856381  Gnorm:      0.013744  CPU:    0.169
  Cycle:     24 Energy:       -99.856381  Gnorm:      0.012669  CPU:    0.174
  Cycle:     25 Energy:       -99.856382  Gnorm:      0.013916  CPU:    0.179
  Cycle:     26 Energy:       -99.856383  Gnorm:      0.012516  CPU:    0.184
  Cycle:     27 Energy:       -99.856383  Gnorm:      0.006850  CPU:    0.189
  Cycle:     28 Energy:       -99.856383  Gnorm:      0.005130  CPU:    0.194
  ** Hessian calculated **
  Cycle:     29 Energy:       -99.856383  Gnorm:      0.005098  CPU:    0.200
  Cycle:     30 Energy:       -99.856383  Gnorm:      0.005050  CPU:    0.205
  Cycle:     31 Energy:       -99.856384  Gnorm:      0.004978  CPU:    0.210
  Cycle:     32 Energy:       -99.856384  Gnorm:      0.004870  CPU:    0.215
  Cycle:     33 Energy:       -99.856385  Gnorm:      0.004708  CPU:    0.220
  Cycle:     34 Energy:       -99.856385  Gnorm:      0.004465  CPU:    0.225
  Cycle:     35 Energy:       -99.856387  Gnorm:      0.004100  CPU:    0.229
  Cycle:     36 Energy:       -99.856389  Gnorm:      0.003183  CPU:    0.238
  Cycle:     37 Energy:       -99.856390  Gnorm:      0.002732  CPU:    0.249
  Cycle:     38 Energy:       -99.856390  Gnorm:      0.002622  CPU:    0.260
  ** Hessian calculated **
  Cycle:     39 Energy:       -99.856390  Gnorm:      0.002617  CPU:    0.280
  Cycle:     40 Energy:       -99.856390  Gnorm:      0.002611  CPU:    0.295
  Cycle:     41 Energy:       -99.856390  Gnorm:      0.002596  CPU:    0.311
  Cycle:     42 Energy:       -99.856390  Gnorm:      0.002573  CPU:    0.326
  Cycle:     43 Energy:       -99.856391  Gnorm:      0.002556  CPU:    0.344
  Cycle:     44 Energy:       -99.856391  Gnorm:      0.002551  CPU:    0.352
  Cycle:     45 Energy:       -99.856376  Gnorm:      0.010367  CPU:    0.378
  ** Hessian calculated **
  Cycle:     46 Energy:       -99.856376  Gnorm:      0.003162  CPU:    0.390
  Cycle:     47 Energy:       -99.856376  Gnorm:      0.004154  CPU:    0.399
  Cycle:     48 Energy:       -99.856376  Gnorm:      0.004258  CPU:    0.408
  Cycle:     49 Energy:       -99.856376  Gnorm:      0.003063  CPU:    0.417
  Cycle:     50 Energy:       -99.856376  Gnorm:      0.003213  CPU:    0.426
  Cycle:     51 Energy:       -99.856376  Gnorm:      0.002448  CPU:    0.435
  Cycle:     52 Energy:       -99.856376  Gnorm:      0.002432  CPU:    0.444
  Cycle:     53 Energy:       -99.856376  Gnorm:      0.002202  CPU:    0.452
  Cycle:     54 Energy:       -99.856376  Gnorm:      0.003030  CPU:    0.461
  Cycle:     55 Energy:       -99.856377  Gnorm:      0.003988  CPU:    0.470
  ** Hessian calculated **
  Cycle:     56 Energy:       -99.856377  Gnorm:      0.003870  CPU:    0.482
  Cycle:     57 Energy:       -99.856377  Gnorm:      0.003694  CPU:    0.491
  Cycle:     58 Energy:       -99.856377  Gnorm:      0.003429  CPU:    0.500
  Cycle:     59 Energy:       -99.856377  Gnorm:      0.003032  CPU:    0.509
  Cycle:     60 Energy:       -99.856378  Gnorm:      0.002436  CPU:    0.518
  Cycle:     61 Energy:       -99.856378  Gnorm:      0.001545  CPU:    0.527


  **** Optimisation achieved ****


  Final energy =     -99.85637867 eV
  Final Gnorm  =       0.00022970

  Components of energy : 

--------------------------------------------------------------------------------
  Interatomic potentials     =          20.55356182 eV    
  Monopole - monopole (real) =          80.99460097 eV    
  Monopole - monopole (recip)=        -201.40454146 eV    
  Monopole - monopole (total)=        -120.40994049 eV    
--------------------------------------------------------------------------------
  Total lattice energy : 
    Primitive unit cell      =         -99.85637867 eV    
    Non-primitive unit cell  =        -299.56913600 eV    
--------------------------------------------------------------------------------
  Total lattice energy (in kJmol-1): 
    Primitive unit cell      =           -9634.6141 kJ/(mole unit cells)
    Non-primitive unit cell  =          -28903.8423 kJ/(mole unit cells)
--------------------------------------------------------------------------------

  Final asymmetric unit coordinates :

--------------------------------------------------------------------------------
   No.  Atomic        x           y           z         Radius
        Label       (Frac)      (Frac)      (Frac)       (Angs) 
--------------------------------------------------------------------------------
     1  Sc    c     0.333302    0.333302    0.333302    0.000000
     2  Cl    c     0.077345    0.440528    0.713912    0.000000
     3  Cl    s     0.065297    0.450169    0.680282    0.000000
--------------------------------------------------------------------------------

  Final Cartesian lattice vectors (Angstroms) :

        3.146819    1.816817    6.452887
       -3.146819    1.816817    6.452887
        0.000000   -3.633633    6.452887


  Final cell parameters and derivatives :

--------------------------------------------------------------------------------
       a            7.405608 Angstrom     dE/de1(xx)    -0.000123 eV/strain
       b            7.405608 Angstrom     dE/de2(yy)     0.000000 eV/strain
       c            7.405608 Angstrom     dE/de3(zz)    -0.000049 eV/strain
       alpha       50.291669 Degrees      dE/de4(yz)     0.000000 eV/strain
       beta        50.291669 Degrees      dE/de5(xz)     0.000000 eV/strain
       gamma       50.291669 Degrees      dE/de6(xy)     0.000000 eV/strain
--------------------------------------------------------------------------------

  Primitive cell volume =           221.354351 Angs**3

  Density of cell =      2.270208 g/cm**3

  Non-primitive lattice parameters :

  a    =     6.293637  b   =     6.293637  c    =    19.358660
  alpha=    90.000000  beta=    90.000000  gamma=   120.000000

  Non-primitive cell volume =           664.063053 Angs**3


  Final internal derivatives :

--------------------------------------------------------------------------------
   No.  Atomic          a             b             c           Radius
        Label          (eV)          (eV)          (eV)        (eV/Angs)
--------------------------------------------------------------------------------
      1 Sc    c       0.000000      0.000000      0.000333      0.000000
      2 Cl    c      -0.000512      0.000026      0.001871      0.000000
      3 Cl    s      -0.000302      0.000461     -0.000278      0.000000
--------------------------------------------------------------------------------
  Maximum abs         0.000512      0.000461      0.001871      0.000000
--------------------------------------------------------------------------------

  Comparison of initial and final structures : 

--------------------------------------------------------------------------------
  Parameter   Initial value   Final value   Difference    Units      Percent
--------------------------------------------------------------------------------
    Volume       705.595603    664.063053   -41.532550    Angs**3     -5.89
    a              6.493176      6.293637    -0.199538    Angstroms   -3.07
    b              6.493176      6.293637    -0.199538    Angstroms   -3.07
    c             19.324619     19.358660     0.034041    Angstroms    0.18
    alpha         90.000000     90.000000     0.000000    Degrees      0.00
    beta          90.000000     90.000000     0.000000    Degrees      0.00
    gamma        120.000000    120.000000     0.000000    Degrees      0.00
      1 x          0.000000      0.000000     0.000000    Fractional   0.00
      1 y          0.000000      0.000000     0.000000    Fractional   0.00
      1 z          0.333900      0.333302     0.000598    Fractional   0.18
      2 x          0.666067      0.666750     0.000683    Fractional   0.10
      2 y          0.702333      0.696683     0.005650    Fractional   0.80
      2 z          0.407633      0.410595     0.002962    Fractional   0.73
      3 x          0.666067      0.666715     0.000648    Fractional   0.10
      3 y          0.702333      0.718301     0.015968    Fractional   2.27
      3 z          0.407633      0.398583     0.009051    Fractional   2.22
--------------------------------------------------------------------------------


  Born effective charge tensors : 

-------------------------------------------------------------------------------
  Atom             x           y             z
-------------------------------------------------------------------------------
    1 Sc    x       1.8547     -0.0008      0.0000
            y       0.0008      1.8547      0.0000
            z       0.0000      0.0000      1.3341
-------------------------------------------------------------------------------
    2 Cl    x      -0.6622     -0.0739     -0.0054
            y      -0.0744     -0.5743      0.0077
            z      -0.0118      0.0242     -0.4447
-------------------------------------------------------------------------------




  Elastic Constant Matrix: (Units=GPa)

-------------------------------------------------------------------------------
  Indices      1         2         3         4         5         6    
-------------------------------------------------------------------------------
       1     59.0042   36.7253    0.0676   -0.0391    0.0164    0.0000
       2     36.7253   59.0042    0.0676    0.0391   -0.0164   -0.0000
       3      0.0676    0.0676    1.3662   -0.0000   -0.0000    0.0000
       4     -0.0391    0.0391   -0.0000    0.1362   -0.0000   -0.0164
       5      0.0164   -0.0164   -0.0000   -0.0000    0.1362   -0.0391
       6      0.0000   -0.0000    0.0000   -0.0164   -0.0391   11.1394
-------------------------------------------------------------------------------


  Elastic Compliance Matrix: (Units=1/GPa)

-------------------------------------------------------------------------------
  Indices      1         2         3         4         5         6    
-------------------------------------------------------------------------------
       1    0.027693 -0.017246 -0.000517  0.012917 -0.005403 -0.000000
       2   -0.017246  0.027693 -0.000517 -0.012917  0.005403  0.000000
       3   -0.000517 -0.000517  0.731998 -0.000000  0.000000 -0.000000
       4    0.012917 -0.012917 -0.000000  7.352608  0.000000  0.010807
       5   -0.005403  0.005403  0.000000  0.000000  7.352608  0.025834
       6   -0.000000  0.000000 -0.000000  0.010807  0.025834  0.089878
-------------------------------------------------------------------------------

  Mechanical properties :

-------------------------------------------------------------------------------
  Convention :                    Reuss         Voigt         Hill
-------------------------------------------------------------------------------
  Bulk  Modulus (GPa)     =       1.33187      21.45510      11.39349
  Shear Modulus (GPa)     =       0.31507       7.78329       4.04918
-------------------------------------------------------------------------------
  Velocity S-wave (km/s)  =       0.37254       1.85161       1.33552
  Velocity P-wave (km/s)  =       0.87848       3.74459       2.71972
-------------------------------------------------------------------------------
  Compressibility (1/GPa) =    0.75082247
-------------------------------------------------------------------------------
  Stress axis :                     x             y             z
-------------------------------------------------------------------------------
  Youngs Moduli (GPa)     =      36.11042      36.11042       1.36612
-------------------------------------------------------------------------------
  Poissons Ratio (x)      =                     0.62276       0.00071
  Poissons Ratio (y)      =       0.62276                     0.00071
  Poissons Ratio (z)      =       0.01868       0.01868
-------------------------------------------------------------------------------


  Piezoelectric Strain Matrix: (Units=C/m**2)

-------------------------------------------------------------------------------
  Indices      1         2         3         4         5         6    
-------------------------------------------------------------------------------
       x    -0.00000  -0.00000  -0.00000  -0.00000  -0.00000  -0.00000
       y     0.00000  -0.00000   0.00000   0.00000   0.00000  -0.00000
       z    -0.00000   0.00000  -0.00000   0.00000  -0.00000  -0.00000
-------------------------------------------------------------------------------


  Piezoelectric Stress Matrix: (Units=10**-11 C/N)

-------------------------------------------------------------------------------
  Indices      1         2         3         4         5         6    
-------------------------------------------------------------------------------
       x    -0.00000  -0.00000  -0.00000  -0.00000  -0.00000  -0.00000
       y     0.00000  -0.00000   0.00000   0.00000   0.00000  -0.00000
       z    -0.00000   0.00000  -0.00000   0.00000  -0.00000  -0.00000
-------------------------------------------------------------------------------


  Static dielectric constant tensor : 

-------------------------------------------------------------------------------
              x         y         z
-------------------------------------------------------------------------------
       x     2.69429  -0.00000   0.00000
       y    -0.00000   2.69429   0.00000
       z     0.00000   0.00000   2.22327
--------------------------------------------------------------------------------

  High frequency dielectric constant tensor : 

-------------------------------------------------------------------------------
              x         y         z
-------------------------------------------------------------------------------
       x     2.11991  -0.00000   0.00000
       y    -0.00000   2.11991   0.00000
       z     0.00000   0.00000   1.97865
-------------------------------------------------------------------------------

  Static refractive indices : 

-------------------------------------------------------------------------------
    1 =    1.49106      2 =    1.64143      3 =    1.64143
-------------------------------------------------------------------------------

  High frequency refractive indices : 

-------------------------------------------------------------------------------
    1 =    1.40664      2 =    1.45599      3 =    1.45599
-------------------------------------------------------------------------------


  Time to end of optimisation =       0.5533 seconds

********************************************************************************
*  Defect calculation for configuration   1 :                                  *
********************************************************************************



!!!!!!!!!!!!!!!!!!!!!!!!!!!!!!!!!!!!!!!!!!!!!!!!!!!!!!!!!!!!!!!!!!!!!!!!!!!!!!!!
!! WARNING : Ambiguous vacancy specifier used
!!!!!!!!!!!!!!!!!!!!!!!!!!!!!!!!!!!!!!!!!!!!!!!!!!!!!!!!!!!!!!!!!!!!!!!!!!!!!!!!



!!!!!!!!!!!!!!!!!!!!!!!!!!!!!!!!!!!!!!!!!!!!!!!!!!!!!!!!!!!!!!!!!!!!!!!!!!!!!!!!
!! WARNING : Ambiguous vacancy specifier used
!!!!!!!!!!!!!!!!!!!!!!!!!!!!!!!!!!!!!!!!!!!!!!!!!!!!!!!!!!!!!!!!!!!!!!!!!!!!!!!!

  Total number of defects =      2

  Total charge on defect  =   1.00

  Defect centre is at   0.0737   0.4439   0.7053  Frac

  Region 1 radius =  11.0000      Number of ions =    344

  Region 2 radius =  24.0000      Number of ions =   3319

  Region 2a mode = 4 : screened electrostatics due to region 1 
                       neglect correction to region 1 forces from 2a
                       region 2a displacements based on defects only

  Region 2a ions will only interact with defects in region 1

  Vacancies:

--------------------------------------------------------------------------------
    Specification type     Symbol/Number         x          y          z
--------------------------------------------------------------------------------
    Atom                    Cl    core
    Atom                    Cl    shel
--------------------------------------------------------------------------------


  Components of defect energy : 

--------------------------------------------------------------------------------
  Region 1 - region 1                   =     13.18009900 eV
  Region 1 - region 2a (unrelaxed)      =     -2.89599442 eV
  Region 1 - 2a (relaxed - correction)  =     -0.42908838 eV
  Region 1 (Total)                      =      9.85501619 eV
  Region 2a                             =      0.21458639 eV
  Region 2b                             =     -0.18241543 eV
--------------------------------------------------------------------------------
  Total defect energy                   =      9.88718715 eV
--------------------------------------------------------------------------------

  Largest displacement in region 2 =   0.0144 Angstroms


  Number of variables =     1032

  Maximum number of calculations  =        1000
  Maximum Hessian update interval =          10
  Maximum step size               =   1.0000000
  Maximum parameter tolerance     =   0.0000100
  Maximum function  tolerance     =   0.0000100
  Maximum gradient  tolerance     =   0.0010000

  Symmetry adapted optimisation

  Newton-Raphson optimiser to be used

  BFGS hessian update to be used

  Lower half triangular hessian to be used

  Start of defect optimisation :

  Cycle:      0 Defect Energy:   9.887187  Gnorm:     0.016831  CPU:    4.156
  ** Hessian calculated **
  Cycle:      1 Defect Energy:   8.763636  Gnorm:     0.013164  CPU:   19.626
  Cycle:      2 Defect Energy:   7.529654  Gnorm:     0.007421  CPU:   30.866
  Cycle:      3 Defect Energy:   6.808664  Gnorm:     0.000883  CPU:   39.082
  Cycle:      4 Defect Energy:   6.792990  Gnorm:     0.000783  CPU:   40.678
  Cycle:      5 Defect Energy:   6.787132  Gnorm:     0.000720  CPU:   42.272
  ** Hessian calculated **
  Cycle:      6 Defect Energy:   6.767480  Gnorm:     0.000509  CPU:   50.183
  Cycle:      7 Defect Energy:   6.756997  Gnorm:     0.000363  CPU:   51.989
  Cycle:      8 Defect Energy:   6.751035  Gnorm:     0.000258  CPU:   53.799
  Cycle:      9 Defect Energy:   6.747717  Gnorm:     0.000183  CPU:   55.668
  Cycle:     10 Defect Energy:   6.745896  Gnorm:     0.000129  CPU:   57.382
  Cycle:     11 Defect Energy:   6.744915  Gnorm:     0.000091  CPU:   59.095
  Cycle:     12 Defect Energy:   6.744406  Gnorm:     0.000064  CPU:   60.889
  Cycle:     13 Defect Energy:   6.744131  Gnorm:     0.000045  CPU:   62.537
  Cycle:     14 Defect Energy:   6.743998  Gnorm:     0.000032  CPU:   64.184
  Cycle:     15 Defect Energy:   6.743923  Gnorm:     0.000022  CPU:   65.927
  ** Hessian calculated **
  Cycle:     16 Defect Energy:   6.743888  Gnorm:     0.000016  CPU:   69.995
  Cycle:     17 Defect Energy:   6.743871  Gnorm:     0.000011  CPU:   71.497


  **** Optimisation achieved ****


  Final defect energy  =        6.74386717
  Final defect Gnorm   =        0.00000772

  Components of defect energy : 

--------------------------------------------------------------------------------
  Region 1 - region 1                   =     10.62003084 eV
  Region 1 - region 2a (unrelaxed)      =     -3.49616196 eV
  Region 1 - 2a (relaxed - correction)  =     -0.39483710 eV
  Region 1 (Total)                      =      6.72903179 eV
  Region 2a                             =      0.19740485 eV
  Region 2b                             =     -0.18256946 eV
--------------------------------------------------------------------------------
  Total defect energy                   =      6.74386717 eV
--------------------------------------------------------------------------------

  Largest displacement in region 2 =   0.0144 Angstroms

  Final coordinates of region 1 :

--------------------------------------------------------------------------------
   No.  Atomic        x           y           z          Radius      Charge
        Label       (Angs)      (Angs)      (Angs)       (Angs)       (e) 
--------------------------------------------------------------------------------
     1  Sc    c    -3.488206   -2.005100    6.152764    0.000000    3.000000
     2  Sc    c     0.333667    0.200100    6.157292    0.000000    3.000000
     3  Cl    c    -1.810901   -0.495834    5.252552    0.000000    1.485000
     4  Cl    c    -4.321637   -0.254703    7.707970    0.000000    1.485000
     5  Cl    c    -0.765593    1.798045    7.711374    0.000000    1.485000
     6  Cl    c    -3.823500   -3.667932    7.959758    0.000000    1.485000
     7  Cl    c     1.942349   -0.340279    7.963574    0.000000    1.485000
     8  Cl    c    -2.364799   -3.781342    4.835860    0.000000    1.485000
     9  Cl    c     1.309540   -1.661434    4.840415    0.000000    1.485000
    10  Cl    c    -1.086129   -5.613243    7.898231    0.000000    1.485000
    11  Cl    c     2.258048   -3.684775    7.900125    0.000000    1.485000
    12  Cl    c    -1.995466    0.174800   11.408013    0.000000    1.485000
    13  Cl    c     0.831107   -1.817165   11.400517    0.000000    1.485000
    14  Cl    c    -2.000732   -3.806912   11.411986    0.000000    1.485000
    15  Sc    c    -3.122046   -5.579282    6.451362    0.000000    3.000000
    16  Sc    c     3.246400   -1.903393    6.454722    0.000000    3.000000
    17  Cl    c    -5.411738   -1.564703    4.662576    0.000000    1.485000
    18  Cl    c     0.915681    2.085251    4.666253    0.000000    1.485000
    19  Cl    c     1.149842    1.636875   11.406529    0.000000    1.485000
    20  Sc    c     0.000787    0.000297   12.917638    0.000000    3.000000
    21  Cl    c     1.158173   -5.640033    4.947393    0.000000    1.485000
    22  Sc    c     0.000833   -3.639644   12.913048    0.000000    3.000000
    23  Cl    c    -5.447273   -1.817670   11.406216    0.000000    1.485000
    24  Sc    c    -6.416024    0.066887    6.323091    0.000000    3.000000
    25  Sc    c     0.003775    3.771771    6.325450    0.000000    3.000000
    26  Cl    c     1.150093   -5.276102   11.404298    0.000000    1.485000
    27  Sc    c     0.042590   -7.319284    6.437170    0.000000    3.000000
    28  Sc    c     3.170395   -5.514017    6.436895    0.000000    3.000000
    29  Cl    c    -5.468465    1.870761    4.879222    0.000000    1.485000
    30  Cl    c    -2.031298    3.853135    4.880241    0.000000    1.485000
    31  Cl    c    -5.142481    1.632592   11.395220    0.000000    1.485000
    32  Cl    c    -4.276772    3.774796    7.876622    0.000000    1.485000
    33  Cl    c    -7.407443   -1.670593    7.822291    0.000000    1.485000
    34  Cl    c    -1.963774   -7.183892    4.934464    0.000000    1.485000
    35  Cl    c     4.056383   -3.707422    4.935898    0.000000    1.485000
    36  Cl    c     2.004915    3.763376    7.823592    0.000000    1.485000
    37  Cl    c    -4.306024   -7.148343    7.985874    0.000000    1.485000
    38  Cl    c     5.198577   -1.661892    7.987362    0.000000    1.485000
    39  Cl    c     2.018915   -7.130986    7.959015    0.000000    1.485000
    40  Cl    c    -5.170846   -5.602678    5.017950    0.000000    1.485000
    41  Cl    c     4.289515   -0.141056    5.019779    0.000000    1.485000
    42  Sc    c    -3.152898    1.820497   12.907960    0.000000    3.000000
    43  Cl    c    -1.154109   -1.990114    1.481755    0.000000    1.485000
    44  Cl    c    -2.294734    3.634163   11.407808    0.000000    1.485000
    45  Cl    c    -5.141297   -5.268896   11.398257    0.000000    1.485000
    46  Cl    c    -0.868148   -1.820465   14.398166    0.000000    1.485000
    47  Sc    c    -3.152244   -5.455742   12.912972    0.000000    3.000000
    48  Cl    c     4.291003    0.165479   11.413483    0.000000    1.485000
    49  Cl    c    -2.294011   -7.266210   11.409432    0.000000    1.485000
    50  Cl    c     4.290204   -3.800455   11.412470    0.000000    1.485000
    51  Cl    c    -7.127998    1.844030    7.920836    0.000000    1.485000
    52  Cl    c    -1.179818    5.278306    7.921525    0.000000    1.485000
    53  Cl    c    -3.983568   -0.004825    1.491731    0.000000    1.485000
    54  Cl    c    -1.147933    1.657199   14.398575    0.000000    1.485000
    55  Cl    c    -1.151973    1.983657    1.485512    0.000000    1.485000
    56  Cl    c    -4.289368   -3.455844    1.487105    0.000000    1.485000
    57  Sc    c    -6.300902    0.000273   12.907741    0.000000    3.000000
    58  Cl    c     1.990912   -3.451357    1.498375    0.000000    1.485000
    59  Cl    c    -7.438533   -5.599402    7.952123    0.000000    1.485000
    60  Cl    c    -4.286768    0.152083   14.389919    0.000000    1.485000
    61  Cl    c     5.422010    1.824968    7.953045    0.000000    1.485000
    62  Cl    c     2.288791    0.000095    1.489560    0.000000    1.485000
    63  Sc    c    -6.300583   -3.636229   12.908191    0.000000    3.000000
    64  Sc    c     3.150521    1.819227   12.911314    0.000000    3.000000
    65  Cl    c     2.009439    0.157647   14.400058    0.000000    1.485000
    66  Cl    c    -0.858569   -5.447392    1.486190    0.000000    1.485000
    67  Cl    c    -0.861866   -9.095497    7.946102    0.000000    1.485000
    68  Cl    c     5.160192   -5.618507    7.946842    0.000000    1.485000
    69  Cl    c    -1.146080   -5.290928   14.402215    0.000000    1.485000
    70  Sc    c    -6.308719    3.677606    6.413981    0.000000    3.000000
    71  Sc    c    -3.176452    5.485382    6.413397    0.000000    3.000000
    72  Cl    c    -4.288832   -3.786847   14.393291    0.000000    1.485000
    73  Cl    c     2.010642   -3.789506   14.395222    0.000000    1.485000
    74  Sc    c     3.150270   -5.455983   12.909287    0.000000    3.000000
    75  Sc    c    -6.319024   -7.291445    6.485840    0.000000    3.000000
    76  Sc    c     6.327266    0.009925    6.485964    0.000000    3.000000
    77  Cl    c    -8.449636   -0.129299    4.893743    0.000000    1.485000
    78  Cl    c     1.189558    5.433659    4.894006    0.000000    1.485000
    79  Sc    c    -3.148937   -1.816977   -0.029667    0.000000    3.000000
    80  Cl    c    -8.299977    0.170588   11.407845    0.000000    1.485000
    81  Cl    c     3.993435    3.634462   11.405304    0.000000    1.485000
    82  Cl    c    -8.584695   -3.656881    4.939775    0.000000    1.485000
    83  Sc    c     0.002784   -3.637813   -0.016672    0.000000    3.000000
    84  Cl    c     4.313004    3.788735    4.940336    0.000000    1.485000
    85  Cl    c    -8.300970   -3.802830   11.410073    0.000000    1.485000
    86  Cl    c     0.894048   -9.135694    4.951352    0.000000    1.485000
    87  Cl    c     4.318523   -7.159637    4.951812    0.000000    1.485000
    88  Cl    c     1.143732    5.616078   11.414111    0.000000    1.485000
    89  Sc    c    -9.482539   -1.843413    6.414124    0.000000    3.000000
    90  Sc    c     3.190886    5.473591    6.413623    0.000000    3.000000
    91  Cl    c     3.998904   -7.271028   11.406416    0.000000    1.485000
    92  Cl    c    -5.167509    5.317246    4.907066    0.000000    1.485000
    93  Cl    c     1.143682   -9.249879   11.413502    0.000000    1.485000
    94  Cl    c    -4.298033    3.461219    1.493776    0.000000    1.485000
    95  Cl    c     1.990579    3.454163    1.498748    0.000000    1.485000
    96  Sc    c    -3.153861    1.821648   -0.015540    0.000000    3.000000
    97  Cl    c    -4.015973    3.636091   14.397258    0.000000    1.485000
    98  Cl    c    -7.156399   -1.817414   14.400726    0.000000    1.485000
    99  Sc    c    -3.145261    5.455499   12.910351    0.000000    3.000000
   100  Cl    c    -7.432121   -1.985111    1.491900    0.000000    1.485000
   101  Cl    c    -5.145465    5.614055   11.409579    0.000000    1.485000
   102  Cl    c     5.141162   -1.984731    1.498993    0.000000    1.485000
   103  Sc    c     3.149062   -1.816097   -0.010054    0.000000    3.000000
   104  Cl    c     7.139331   -1.817274   11.405421    0.000000    1.485000
   105  Cl    c     2.274687    3.634038   14.396294    0.000000    1.485000
   106  Cl    c    -4.015758   -7.272987   14.399606    0.000000    1.485000
   107  Cl    c    -5.426078   -9.078459    4.978860    0.000000    1.485000
   108  Cl    c     7.428746   -1.657175    4.979549    0.000000    1.485000
   109  Sc    c     6.296124   -0.001358   12.912220    0.000000    3.000000
   110  Cl    c    -4.293481   -7.428353    1.492838    0.000000    1.485000
   111  Cl    c     2.000005   -7.427593    1.494287    0.000000    1.485000
   112  Sc    c    -3.144746   -9.089973   12.908592    0.000000    3.000000
   113  Sc    c     6.295375   -3.635374   12.910379    0.000000    3.000000
   114  Sc    c    -9.446851   -5.464310    6.452767    0.000000    3.000000
   115  Sc    c     6.308789    3.632372    6.454171    0.000000    3.000000
   116  Cl    c     5.422801   -1.818380   14.398382    0.000000    1.485000
   117  Cl    c     2.275888   -7.269921   14.395759    0.000000    1.485000
   118  Cl    c    -5.147456   -9.246294   11.411045    0.000000    1.485000
   119  Cl    c    -7.437403    5.307534    7.934974    0.000000    1.485000
   120  Cl    c    -4.024017    7.277006    7.935231    0.000000    1.485000
   121  Cl    c   -10.282414   -3.642659    7.955393    0.000000    1.485000
   122  Cl    c     5.148478    5.267313    7.955754    0.000000    1.485000
   123  Cl    c    -8.323728    3.805818    4.940812    0.000000    1.485000
   124  Cl    c    -2.280158    7.295439    4.941262    0.000000    1.485000
   125  Cl    c    -1.995534    7.095113   11.404967    0.000000    1.485000
   126  Sc    c    -0.000361  -10.928173    6.463667    0.000000    3.000000
   127  Cl    c    -8.289671   -7.105161    4.955848    0.000000    1.485000
   128  Sc    c     6.317552   -7.280663    6.464937    0.000000    3.000000
   129  Cl    c     7.150797    1.810202    4.956370    0.000000    1.485000
   130  Cl    c   -10.568919   -0.174012    7.930297    0.000000    1.485000
   131  Cl    c     2.288150    7.248466    7.930477    0.000000    1.485000
   132  Cl    c    -0.855171    5.443829    1.496202    0.000000    1.485000
   133  Sc    c    -0.001599    3.634972   -0.012488    0.000000    3.000000
   134  Cl    c    -7.138936   -5.453322    1.499140    0.000000    1.485000
   135  Cl    c    -7.171245   -9.113893    7.966967    0.000000    1.485000
   136  Cl    c     8.331368   -0.163012    7.967466    0.000000    1.485000
   137  Cl    c    -2.283689    0.007631   -1.506875    0.000000    1.485000
   138  Cl    c    -1.999855   -3.473393   -1.510589    0.000000    1.485000
   139  Cl    c    -7.433996    1.662535   14.395560    0.000000    1.485000
   140  Sc    c    -6.296017   -3.640325   -0.009410    0.000000    3.000000
   141  Sc    c     3.148051    1.818544   -0.008900    0.000000    3.000000
   142  Cl    c     5.151954    1.654086   14.404169    0.000000    1.485000
   143  Cl    c    -7.432589    1.981004    1.493132    0.000000    1.485000
   144  Cl    c     1.139148   -1.969490   -1.497162    0.000000    1.485000
   145  Sc    c     3.148283    5.454030   12.910765    0.000000    3.000000
   146  Cl    c     5.140443    1.986783    1.499693    0.000000    1.485000
   147  Cl    c    -1.151586   -8.901300    1.507021    0.000000    1.485000
   148  Cl    c    -1.136082    5.605631   14.396255    0.000000    1.485000
   149  Cl    c    -8.577403    3.631051   11.412710    0.000000    1.485000
   150  Cl    c    -7.434817   -5.295810   14.397909    0.000000    1.485000
   151  Sc    c     0.000763   -7.271872   -0.007349    0.000000    3.000000
   152  Cl    c     5.150497   -5.287843   14.404391    0.000000    1.485000
   153  Cl    c    -1.995390  -10.730671   11.405181    0.000000    1.485000
   154  Cl    c     7.433743    1.649146   11.410101    0.000000    1.485000
   155  Cl    c    -2.003212  -11.056517    4.965776    0.000000    1.485000
   156  Cl    c     7.429059   -5.610547    4.965939    0.000000    1.485000
   157  Cl    c    -4.285263  -11.051023    7.940196    0.000000    1.485000
   158  Cl    c     8.566195   -3.632084    7.940130    0.000000    1.485000
   159  Cl    c     5.425650   -5.449105    1.493190    0.000000    1.485000
   160  Cl    c     2.004856  -11.066321    7.955623    0.000000    1.485000
   161  Cl    c     5.434520   -9.087213    7.955679    0.000000    1.485000
   162  Cl    c    -8.577401   -7.263656   11.412565    0.000000    1.485000
   163  Sc    c     3.148664   -9.090267   12.909149    0.000000    3.000000
   164  Cl    c     7.435947   -5.283172   11.408612    0.000000    1.485000
   165  Cl    c    -1.136661   -9.239320   14.396312    0.000000    1.485000
   166  Cl    c    -2.293295    0.000558   17.857843    0.000000    1.485000
   167  Cl    c    -1.997559   -3.460403   17.855749    0.000000    1.485000
   168  Cl    c    -5.162602   -1.978681   -1.503677    0.000000    1.485000
   169  Cl    c     1.145519   -1.985029   17.858660    0.000000    1.485000
   170  Sc    c    -9.447452    1.819865   12.910716    0.000000    3.000000
   171  Sc    c     0.001887    7.272657   12.910319    0.000000    3.000000
   172  Cl    c     1.137607    1.969979   -1.495140    0.000000    1.485000
   173  Cl    c     0.868689   -5.455919   -1.500353    0.000000    1.485000
   174  Sc    c    -9.447354   -5.453889   12.911863    0.000000    3.000000
   175  Sc    c     0.002187  -10.906209   12.910444    0.000000    3.000000
   176  Cl    c   -11.496055   -1.679431    4.944236    0.000000    1.485000
   177  Cl    c     4.055539    7.299998    4.944488    0.000000    1.485000
   178  Sc    c    -6.296612  -10.914547    6.453026    0.000000    3.000000
   179  Sc    c     9.453850   -1.821072    6.454244    0.000000    3.000000
   180  Cl    c    -2.007004    3.475266   -1.502325    0.000000    1.485000
   181  Cl    c    -5.145345   -1.988622   17.856193    0.000000    1.485000
   182  Sc    c    -6.300520    3.639155   -0.007939    0.000000    3.000000
   183  Cl    c    -5.164560    1.971998   -1.495787    0.000000    1.485000
   184  Cl    c     4.008126    0.001508   -1.499825    0.000000    1.485000
   185  Cl    c     1.144999    1.982443   17.859465    0.000000    1.485000
   186  Cl    c   -10.571794    3.783987    7.938856    0.000000    1.485000
   187  Cl    c    -1.137201    9.231197    7.938928    0.000000    1.485000
   188  Cl    c     0.849561   -5.449235   17.855725    0.000000    1.485000
   189  Cl    c     4.293721    7.092203   11.402689    0.000000    1.485000
   190  Cl    c   -10.580658   -7.114456    7.950604    0.000000    1.485000
   191  Cl    c     8.305752    3.789433    7.950576    0.000000    1.485000
   192  Cl    c    -1.154867  -12.561032    7.965201    0.000000    1.485000
   193  Cl    c     8.309746   -7.096850    7.965200    0.000000    1.485000
   194  Sc    c    -6.296530   -7.274348   -0.007086    0.000000    3.000000
   195  Sc    c    -9.455259    5.460803    6.450534    0.000000    3.000000
   196  Sc    c    -3.148355    9.102063    6.451721    0.000000    3.000000
   197  Cl    c    -5.420204   -5.455221   -1.492745    0.000000    1.485000
   198  Cl    s    -1.760549   -0.583384    5.440473    0.000000   -2.485000
   199  Cl    s    -3.733339   -3.651510    7.684817    0.000000   -2.485000
   200  Cl    s     1.883110   -0.410317    7.688635    0.000000   -2.485000
   201  Cl    s    -4.388893   -0.389881    7.471408    0.000000   -2.485000
   202  Cl    s    -0.614816    1.788642    7.474748    0.000000   -2.485000
   203  Cl    s    -2.520408   -3.745402    5.074328    0.000000   -2.485000
   204  Cl    s     1.356176   -1.508409    5.078695    0.000000   -2.485000
   205  Cl    s    -1.166852   -5.732475    7.668159    0.000000   -2.485000
   206  Cl    s     2.401621   -3.673975    7.670021    0.000000   -2.485000
   207  Cl    s     0.698765   -1.815778   11.623664    0.000000   -2.485000
   208  Cl    s    -1.928608    0.286972   11.626962    0.000000   -2.485000
   209  Cl    s    -1.933433   -3.919299   11.633653    0.000000   -2.485000
   210  Cl    s    -5.297212   -1.488205    4.920451    0.000000   -2.485000
   211  Cl    s     0.791766    2.024030    4.924179    0.000000   -2.485000
   212  Cl    s     1.213513    1.519633   11.632341    0.000000   -2.485000
   213  Cl    s     1.225627   -5.756558    5.180489    0.000000   -2.485000
   214  Cl    s     1.213777   -5.158000   11.633127    0.000000   -2.485000
   215  Cl    s    -5.578207   -1.817172   11.631085    0.000000   -2.485000
   216  Cl    s    -1.904862   -7.055951    5.175655    0.000000   -2.485000
   217  Cl    s     3.916187   -3.694913    5.177001    0.000000   -2.485000
   218  Cl    s     1.950613   -7.012809    7.716807    0.000000   -2.485000
   219  Cl    s    -5.604809    1.855757    5.113686    0.000000   -2.485000
   220  Cl    s    -1.950507    3.963933    5.114665    0.000000   -2.485000
   221  Cl    s    -4.360603   -7.023590    7.744677    0.000000   -2.485000
   222  Cl    s     5.117287   -1.552464    7.746158    0.000000   -2.485000
   223  Cl    s    -5.074295    1.517893   11.624089    0.000000   -2.485000
   224  Cl    s    -5.089333   -5.718794    5.247782    0.000000   -2.485000
   225  Cl    s     4.349781   -0.269540    5.249526    0.000000   -2.485000
   226  Cl    s    -0.729382   -1.819011   14.162359    0.000000   -2.485000
   227  Cl    s    -7.478317   -1.544172    7.591475    0.000000   -2.485000
   228  Cl    s     1.930466    3.887559    7.592747    0.000000   -2.485000
   229  Cl    s    -4.347770    3.897451    7.646712    0.000000   -2.485000
   230  Cl    s    -5.073822   -5.153284   11.627070    0.000000   -2.485000
   231  Cl    s    -2.428452    3.630162   11.635072    0.000000   -2.485000
   232  Cl    s    -1.221089   -2.102415    1.261950    0.000000   -2.485000
   233  Cl    s    -7.000803    1.836479    7.672490    0.000000   -2.485000
   234  Cl    s    -1.236623    5.164151    7.673165    0.000000   -2.485000
   235  Cl    s    -2.428734   -7.262598   11.637610    0.000000   -2.485000
   236  Cl    s     4.354855    0.282401   11.640191    0.000000   -2.485000
   237  Cl    s    -1.215404    1.536313   14.162302    0.000000   -2.485000
   238  Cl    s     4.355264   -3.916738   11.639870    0.000000   -2.485000
   239  Cl    s    -1.214006   -5.170568   14.165845    0.000000   -2.485000
   240  Cl    s     1.937095    0.276053   14.164608    0.000000   -2.485000
   241  Cl    s    -4.355072    0.273183   14.155439    0.000000   -2.485000
   242  Cl    s    -3.850661   -0.006003    1.268511    0.000000   -2.485000
   243  Cl    s     1.938181   -3.908048   14.160645    0.000000   -2.485000
   244  Cl    s    -4.357015   -3.907508   14.159039    0.000000   -2.485000
   245  Cl    s    -0.723159   -9.090062    7.710944    0.000000   -2.485000
   246  Cl    s     5.086476   -5.736104    7.711707    0.000000   -2.485000
   247  Cl    s     1.922924   -3.335641    1.269412    0.000000   -2.485000
   248  Cl    s    -7.501118   -5.721164    7.720090    0.000000   -2.485000
   249  Cl    s    -4.354516   -3.337845    1.263946    0.000000   -2.485000
   250  Cl    s     5.558722    1.818596    7.720974    0.000000   -2.485000
   251  Cl    s    -1.218510    2.096237    1.263554    0.000000   -2.485000
   252  Cl    s    -0.724059   -5.443495    1.259252    0.000000   -2.485000
   253  Cl    s    -8.354394   -0.245314    5.126967    0.000000   -2.485000
   254  Cl    s     1.242736    5.293658    5.127410    0.000000   -2.485000
   255  Cl    s     2.419545    0.000302    1.266745    0.000000   -2.485000
   256  Cl    s     0.753925   -9.122359    5.187632    0.000000   -2.485000
   257  Cl    s     4.376702   -7.031423    5.188126    0.000000   -2.485000
   258  Cl    s     3.858664    3.631572   11.636042    0.000000   -2.485000
   259  Cl    s    -8.229394    0.285694   11.636853    0.000000   -2.485000
   260  Cl    s    -8.718344   -3.650897    5.172521    0.000000   -2.485000
   261  Cl    s     4.374427    3.907632    5.173084    0.000000   -2.485000
   262  Cl    s    -5.097478    5.196211    5.145749    0.000000   -2.485000
   263  Cl    s    -8.230088   -3.917795   11.639490    0.000000   -2.485000
   264  Cl    s     3.863562   -7.268268   11.637485    0.000000   -2.485000
   265  Cl    s    -7.018673   -1.816886   14.164408    0.000000   -2.485000
   266  Cl    s     1.210972    5.731633   11.641967    0.000000   -2.485000
   267  Cl    s    -3.877175    3.633086   14.161944    0.000000   -2.485000
   268  Cl    s     1.922553    3.336986    1.270453    0.000000   -2.485000
   269  Cl    s    -3.877174   -7.268713   14.164610    0.000000   -2.485000
   270  Cl    s    -4.362556    3.343062    1.264339    0.000000   -2.485000
   271  Cl    s     1.211615   -9.365586   11.642716    0.000000   -2.485000
   272  Cl    s     2.412877    3.631611   14.162261    0.000000   -2.485000
   273  Cl    s     7.003868   -1.816711   11.636936    0.000000   -2.485000
   274  Cl    s    -5.563185   -9.073959    5.211703    0.000000   -2.485000
   275  Cl    s     7.493075   -1.536055    5.212224    0.000000   -2.485000
   276  Cl    s     5.071361   -2.100257    1.269127    0.000000   -2.485000
   277  Cl    s    -5.076793    5.729809   11.639089    0.000000   -2.485000
   278  Cl    s     2.413823   -7.266730   14.162077    0.000000   -2.485000
   279  Cl    s    -7.497144   -2.101487    1.265463    0.000000   -2.485000
   280  Cl    s     5.560075   -1.817597   14.164640    0.000000   -2.485000
   281  Cl    s   -10.148379   -3.641079    7.714552    0.000000   -2.485000
   282  Cl    s     5.080456    5.151779    7.714836    0.000000   -2.485000
   283  Cl    s    -8.221155   -6.987260    5.194720    0.000000   -2.485000
   284  Cl    s     7.014477    1.809486    5.195203    0.000000   -2.485000
   285  Cl    s    -7.500359    5.184595    7.698410    0.000000   -2.485000
   286  Cl    s    -3.886078    7.270463    7.698639    0.000000   -2.485000
   287  Cl    s    -1.932782   -3.352237   -1.273989    0.000000   -2.485000
   288  Cl    s    -8.245685    3.920911    5.175266    0.000000   -2.485000
   289  Cl    s    -2.418884    7.284963    5.175601    0.000000   -2.485000
   290  Cl    s    -2.422186    0.004942   -1.271069    0.000000   -2.485000
   291  Cl    s     5.080940    1.535453   14.168328    0.000000   -2.485000
   292  Cl    s     1.930690   -7.543340    1.264576    0.000000   -2.485000
   293  Cl    s    -1.929279    6.977081   11.636221    0.000000   -2.485000
   294  Cl    s    -4.359743   -7.544591    1.264777    0.000000   -2.485000
   295  Cl    s    -5.078507   -9.361845   11.640685    0.000000   -2.485000
   296  Cl    s    -7.500413    1.540893   14.161077    0.000000   -2.485000
   297  Cl    s     1.207081   -2.090203   -1.262285    0.000000   -2.485000
   298  Cl    s    -7.031956   -9.102609    7.731215    0.000000   -2.485000
   299  Cl    s     8.252187   -0.278144    7.731682    0.000000   -2.485000
   300  Cl    s     5.080136   -5.169234   14.168477    0.000000   -2.485000
   301  Cl    s   -10.636135   -0.294083    7.695713    0.000000   -2.485000
   302  Cl    s     2.425781    7.247037    7.695749    0.000000   -2.485000
   303  Cl    s    -7.501259   -5.174259   14.163234    0.000000   -2.485000
   304  Cl    s    -7.004126   -5.450176    1.268171    0.000000   -2.485000
   305  Cl    s    -1.206859    5.723762   14.162463    0.000000   -2.485000
   306  Cl    s    -0.720297    5.441067    1.266932    0.000000   -2.485000
   307  Cl    s    -1.218103   -8.784194    1.274527    0.000000   -2.485000
   308  Cl    s    -1.929498  -10.612187   11.637300    0.000000   -2.485000
   309  Cl    s     5.070442    2.101535    1.269106    0.000000   -2.485000
   310  Cl    s    -7.499487    2.096748    1.265026    0.000000   -2.485000
   311  Cl    s    -8.712081    3.630119   11.641894    0.000000   -2.485000
   312  Cl    s     7.499259    1.530862   11.640340    0.000000   -2.485000
   313  Cl    s    -1.934392  -11.174161    5.198944    0.000000   -2.485000
   314  Cl    s     7.496899   -5.728822    5.199113    0.000000   -2.485000
   315  Cl    s    -1.207180   -9.357355   14.162837    0.000000   -2.485000
   316  Cl    s    -5.088446   -2.096785   -1.267845    0.000000   -2.485000
   317  Cl    s     1.933390  -11.182172    7.721549    0.000000   -2.485000
   318  Cl    s     5.570557   -9.082817    7.721679    0.000000   -2.485000
   319  Cl    s    -4.354407  -11.168584    7.708394    0.000000   -2.485000
   320  Cl    s     8.702584   -3.630611    7.708332    0.000000   -2.485000
   321  Cl    s     7.500909   -5.164537   11.639924    0.000000   -2.485000
   322  Cl    s     0.729591   -5.451725   -1.264543    0.000000   -2.485000
   323  Cl    s    -8.712332   -7.262799   11.642069    0.000000   -2.485000
   324  Cl    s     1.205603    2.090106   -1.260270    0.000000   -2.485000
   325  Cl    s     5.560338   -5.446390    1.264310    0.000000   -2.485000
   326  Cl    s    -1.930633   -3.343818   18.086328    0.000000   -2.485000
   327  Cl    s    -2.427762    0.000627   18.087646    0.000000   -2.485000
   328  Cl    s    -1.938678    3.353904   -1.265616    0.000000   -2.485000
   329  Cl    s     1.212940   -2.101440   18.088392    0.000000   -2.485000
   330  Cl    s   -11.413878   -1.560897    5.179361    0.000000   -2.485000
   331  Cl    s     3.911831    7.287786    5.179629    0.000000   -2.485000
   332  Cl    s     3.868790    0.000846   -1.262712    0.000000   -2.485000
   333  Cl    s    -5.091082    2.090388   -1.260734    0.000000   -2.485000
   334  Cl    s    -1.219535  -12.439016    7.727724    0.000000   -2.485000
   335  Cl    s     8.236014   -6.980002    7.727741    0.000000   -2.485000
   336  Cl    s    -5.558532   -5.451635   -1.258281    0.000000   -2.485000
   337  Cl    s     4.358731    6.973816   11.634905    0.000000   -2.485000
   338  Cl    s   -10.643694   -6.991666    7.715162    0.000000   -2.485000
   339  Cl    s     8.230540    3.905220    7.715183    0.000000   -2.485000
   340  Cl    s    -5.077500   -2.104551   18.086504    0.000000   -2.485000
   341  Cl    s   -10.638307    3.903735    7.707209    0.000000   -2.485000
   342  Cl    s    -1.207971    9.348451    7.707285    0.000000   -2.485000
   343  Cl    s     0.715119   -5.448510   18.086226    0.000000   -2.485000
   344  Cl    s     1.211953    2.099015   18.088700    0.000000   -2.485000
--------------------------------------------------------------------------------

  Final coordinates of symmetry reduced region 1 (relative to defect centre):

--------------------------------------------------------------------------------
   No.  Atomic        x           y           z          Charge
        Label       (Angs)      (Angs)      (Angs)         (e) 
--------------------------------------------------------------------------------
     1  Sc    c    -2.323253   -0.382683   -1.738471    3.000000
     2  Sc    c     1.498619    1.822517   -1.733944    3.000000
     3  Cl    c    -0.645949    1.126584   -2.638683    1.485000
     4  Cl    c    -3.156685    1.367715   -0.183265    1.485000
     5  Cl    c     0.399359    3.420462   -0.179861    1.485000
     6  Cl    c    -2.658547   -2.045515    0.068523    1.485000
     7  Cl    c     3.107301    1.282138    0.072339    1.485000
     8  Cl    c    -1.199847   -2.158925   -3.055375    1.485000
     9  Cl    c     2.474492   -0.039017   -3.050820    1.485000
    10  Cl    c     0.078823   -3.990826    0.006996    1.485000
    11  Cl    c     3.423000   -2.062358    0.008890    1.485000
    12  Cl    c    -0.830514    1.797217    3.516778    1.485000
    13  Cl    c     1.996060   -0.194748    3.509281    1.485000
    14  Cl    c    -0.835780   -2.184495    3.520751    1.485000
    15  Sc    c    -1.957093   -3.956865   -1.439873    3.000000
    16  Sc    c     4.411353   -0.280976   -1.436513    3.000000
    17  Cl    c    -4.246786    0.057714   -3.228659    1.485000
    18  Cl    c     2.080633    3.707668   -3.224982    1.485000
    19  Cl    c     2.314794    3.259292    3.515294    1.485000
    20  Sc    c     1.165740    1.622714    5.026403    3.000000
    21  Cl    c     2.323125   -4.017616   -2.943842    1.485000
    22  Sc    c     1.165785   -2.017227    5.021813    3.000000
    23  Cl    c    -4.282321   -0.195252    3.514981    1.485000
    24  Sc    c    -5.251072    1.689305   -1.568144    3.000000
    25  Sc    c     1.168727    5.394188   -1.565785    3.000000
    26  Cl    c     2.315046   -3.653685    3.513063    1.485000
    27  Sc    c     1.207543   -5.696867   -1.454065    3.000000
    28  Sc    c     4.335347   -3.891600   -1.454340    3.000000
    29  Cl    c    -4.303512    3.493178   -3.012013    1.485000
    30  Cl    c    -0.866346    5.475553   -3.010994    1.485000
    31  Cl    c    -3.977529    3.255010    3.503985    1.485000
    32  Cl    c    -3.111819    5.397213   -0.014613    1.485000
    33  Cl    c    -6.242491   -0.048176   -0.068944    1.485000
    34  Cl    c    -0.798822   -5.561475   -2.956771    1.485000
    35  Cl    c     5.221335   -2.085005   -2.955337    1.485000
    36  Cl    c     3.169867    5.385794   -0.067643    1.485000
    37  Cl    c    -3.141072   -5.525926    0.094639    1.485000
    38  Cl    c     6.363529   -0.039475    0.096127    1.485000
    39  Cl    c     3.183868   -5.508569    0.067780    1.485000
    40  Cl    c    -4.005894   -3.980261   -2.873285    1.485000
    41  Cl    c     5.454467    1.481361   -2.871457    1.485000
    42  Sc    c    -1.987946    3.442914    5.016725    3.000000
    43  Cl    c     0.010843   -0.367697   -6.409480    1.485000
    44  Cl    c    -1.129782    5.256580    3.516573    1.485000
    45  Cl    c    -3.976345   -3.646479    3.507022    1.485000
    46  Cl    c     0.296804   -0.198047    6.506931    1.485000
    47  Sc    c    -1.987292   -3.833325    5.021737    3.000000
    48  Cl    c     5.455956    1.787897    3.522248    1.485000
    49  Cl    c    -1.129058   -5.643793    3.518197    1.485000
    50  Cl    c     5.455156   -2.178038    3.521235    1.485000
    51  Cl    c    -5.963045    3.466448    0.029601    1.485000
    52  Cl    c    -0.014865    6.900723    0.030290    1.485000
    53  Cl    c    -2.818616    1.617592   -6.399504    1.485000
    54  Cl    c     0.017019    3.279617    6.507340    1.485000
    55  Cl    c     0.012979    3.606074   -6.405723    1.485000
    56  Cl    c    -3.124415   -1.833427   -6.404130    1.485000
    57  Sc    c    -5.135949    1.622690    5.016506    3.000000
    58  Cl    c     3.155864   -1.828940   -6.392860    1.485000
    59  Cl    c    -6.273581   -3.976985    0.060888    1.485000
    60  Cl    c    -3.121816    1.774501    6.498684    1.485000
    61  Cl    c     6.586962    3.447385    0.061810    1.485000
    62  Cl    c     3.453743    1.622512   -6.401675    1.485000
    63  Sc    c    -5.135631   -2.013812    5.016956    3.000000
    64  Sc    c     4.315474    3.441644    5.020079    3.000000
    65  Cl    c     3.174391    1.780064    6.508823    1.485000
    66  Cl    c     0.306383   -3.824975   -6.405045    1.485000
    67  Cl    c     0.303087   -7.473080    0.054867    1.485000
    68  Cl    c     6.325144   -3.996090    0.055607    1.485000
    69  Cl    c     0.018872   -3.668511    6.510980    1.485000
    70  Sc    c    -5.143767    5.300023   -1.477254    3.000000
    71  Sc    c    -2.011500    7.107799   -1.477838    3.000000
    72  Cl    c    -3.123880   -2.164430    6.502056    1.485000
    73  Cl    c     3.175594   -2.167089    6.503987    1.485000
    74  Sc    c     4.315222   -3.833566    5.018052    3.000000
    75  Sc    c    -5.154072   -5.669028   -1.405395    3.000000
    76  Sc    c     7.492218    1.632342   -1.405271    3.000000
    77  Cl    c    -7.284684    1.493119   -2.997492    1.485000
    78  Cl    c     2.354510    7.056076   -2.997229    1.485000
    79  Sc    c    -1.983985   -0.194560   -7.920902    3.000000
    80  Cl    c    -7.135025    1.793005    3.516610    1.485000
    81  Cl    c     5.158387    5.256879    3.514069    1.485000
    82  Cl    c    -7.419743   -2.034464   -2.951460    1.485000
    83  Sc    c     1.167736   -2.015396   -7.907907    3.000000
    84  Cl    c     5.477956    5.411153   -2.950899    1.485000
    85  Cl    c    -7.136017   -2.180413    3.518838    1.485000
    86  Cl    c     2.059000   -7.513277   -2.939883    1.485000
    87  Cl    c     5.483475   -5.537220   -2.939423    1.485000
    88  Cl    c     2.308685    7.238495    3.522876    1.485000
    89  Sc    c    -8.317587   -0.220996   -1.477111    3.000000
    90  Sc    c     4.355839    7.096008   -1.477612    3.000000
    91  Cl    c     5.163857   -5.648611    3.515181    1.485000
    92  Cl    c    -4.002557    6.939663   -2.984169    1.485000
    93  Cl    c     2.308634   -7.627461    3.522267    1.485000
    94  Cl    c    -3.133081    5.083636   -6.397459    1.485000
    95  Cl    c     3.155531    5.076580   -6.392487    1.485000
    96  Sc    c    -1.988908    3.444065   -7.906775    3.000000
    97  Cl    c    -2.851021    5.258508    6.506023    1.485000
    98  Cl    c    -5.991447   -0.194996    6.509491    1.485000
    99  Sc    c    -1.980309    7.077916    5.019116    3.000000
   100  Cl    c    -6.267169   -0.362693   -6.399335    1.485000
   101  Cl    c    -3.980513    7.236472    3.518344    1.485000
   102  Cl    c     6.306114   -0.362314   -6.392242    1.485000
   103  Sc    c     4.314014   -0.193680   -7.901289    3.000000
   104  Cl    c     8.304283   -0.194857    3.514186    1.485000
   105  Cl    c     3.439639    5.256455    6.505059    1.485000
   106  Cl    c    -2.850806   -5.650570    6.508371    1.485000
   107  Cl    c    -4.261126   -7.456042   -2.912375    1.485000
   108  Cl    c     8.593698   -0.034758   -2.911686    1.485000
   109  Sc    c     7.461076    1.621059    5.020985    3.000000
   110  Cl    c    -3.128529   -5.805936   -6.398397    1.485000
   111  Cl    c     3.164957   -5.805175   -6.396948    1.485000
   112  Sc    c    -1.979794   -7.467556    5.017357    3.000000
   113  Sc    c     7.460327   -2.012956    5.019144    3.000000
   114  Sc    c    -8.281899   -3.841892   -1.438468    3.000000
   115  Sc    c     7.473742    5.254789   -1.437064    3.000000
   116  Cl    c     6.587753   -0.195963    6.507147    1.485000
   117  Cl    c     3.440840   -5.647504    6.504524    1.485000
   118  Cl    c    -3.982504   -7.623876    3.519810    1.485000
   119  Cl    c    -6.272451    6.929951    0.043739    1.485000
   120  Cl    c    -2.859065    8.899424    0.043996    1.485000
   121  Cl    c    -9.117462   -2.020242    0.064158    1.485000
   122  Cl    c     6.313430    6.889730    0.064519    1.485000
   123  Cl    c    -7.158776    5.428236   -2.950423    1.485000
   124  Cl    c    -1.115205    8.917857   -2.949973    1.485000
   125  Cl    c    -0.830582    8.717530    3.513732    1.485000
   126  Sc    c     1.164591   -9.305756   -1.427568    3.000000
   127  Cl    c    -7.124719   -5.482743   -2.935387    1.485000
   128  Sc    c     7.482504   -5.658246   -1.426298    3.000000
   129  Cl    c     8.315749    3.432619   -2.934865    1.485000
   130  Cl    c    -9.403967    1.448405    0.039062    1.485000
   131  Cl    c     3.453102    8.870883    0.039242    1.485000
   132  Cl    c     0.309781    7.066246   -6.395033    1.485000
   133  Sc    c     1.163354    5.257389   -7.903723    3.000000
   134  Cl    c    -5.973983   -3.830904   -6.392095    1.485000
   135  Cl    c    -6.006293   -7.491476    0.075732    1.485000
   136  Cl    c     9.496321    1.459405    0.076231    1.485000
   137  Cl    c    -1.118737    1.630048   -9.398110    1.485000
   138  Cl    c    -0.834902   -1.850975   -9.401824    1.485000
   139  Cl    c    -6.269043    3.284952    6.504325    1.485000
   140  Sc    c    -5.131065   -2.017908   -7.900645    3.000000
   141  Sc    c     4.313003    3.440962   -7.900135    3.000000
   142  Cl    c     6.316906    3.276504    6.512934    1.485000
   143  Cl    c    -6.267636    3.603421   -6.398103    1.485000
   144  Cl    c     2.304100   -0.347073   -9.388397    1.485000
   145  Sc    c     4.313235    7.076447    5.019530    3.000000
   146  Cl    c     6.305396    3.609200   -6.391542    1.485000
   147  Cl    c     0.013366   -7.278883   -6.384214    1.485000
   148  Cl    c     0.028870    7.228048    6.505020    1.485000
   149  Cl    c    -7.412450    5.253468    3.521475    1.485000
   150  Cl    c    -6.269865   -3.673393    6.506674    1.485000
   151  Sc    c     1.165715   -5.649455   -7.898584    3.000000
   152  Cl    c     6.315449   -3.665426    6.513156    1.485000
   153  Cl    c    -0.830438   -9.108254    3.513946    1.485000
   154  Cl    c     8.598695    3.271563    3.518866    1.485000
   155  Cl    c    -0.838259   -9.434100   -2.925459    1.485000
   156  Cl    c     8.594011   -3.988130   -2.925297    1.485000
   157  Cl    c    -3.120310   -9.428606    0.048961    1.485000
   158  Cl    c     9.731147   -2.009667    0.048895    1.485000
   159  Cl    c     6.590602   -3.826687   -6.398045    1.485000
   160  Cl    c     3.169808   -9.443904    0.064388    1.485000
   161  Cl    c     6.599473   -7.464796    0.064444    1.485000
   162  Cl    c    -7.412449   -5.641239    3.521330    1.485000
   163  Sc    c     4.313616   -7.467849    5.017914    3.000000
   164  Cl    c     8.600899   -3.660755    3.517377    1.485000
   165  Cl    c     0.028291   -7.616903    6.505077    1.485000
   166  Cl    c    -1.128343    1.622975    9.966608    1.485000
   167  Cl    c    -0.832607   -1.837985    9.964514    1.485000
   168  Cl    c    -3.997649   -0.356264   -9.394912    1.485000
   169  Cl    c     2.310471   -0.362612    9.967425    1.485000
   170  Sc    c    -8.282500    3.442282    5.019481    3.000000
   171  Sc    c     1.166839    8.895074    5.019084    3.000000
   172  Cl    c     2.302559    3.592396   -9.386375    1.485000
   173  Cl    c     2.033641   -3.833502   -9.391588    1.485000
   174  Sc    c    -8.282402   -3.831472    5.020628    3.000000
   175  Sc    c     1.167139   -9.283792    5.019209    3.000000
   176  Cl    c   -10.331103   -0.057014   -2.946999    1.485000
   177  Cl    c     5.220492    8.922415   -2.946747    1.485000
   178  Sc    c    -5.131660   -9.292130   -1.438209    3.000000
   179  Sc    c    10.618803   -0.198655   -1.436991    3.000000
   180  Cl    c    -0.842051    5.097683   -9.393561    1.485000
   181  Cl    c    -3.980392   -0.366205    9.964958    1.485000
   182  Sc    c    -5.135567    5.261572   -7.899174    3.000000
   183  Cl    c    -3.999608    3.594415   -9.387022    1.485000
   184  Cl    c     5.173078    1.623925   -9.391060    1.485000
   185  Cl    c     2.309952    3.604861    9.968230    1.485000
   186  Cl    c    -9.406842    5.406404    0.047621    1.485000
   187  Cl    c     0.027752   10.853614    0.047693    1.485000
   188  Cl    c     2.014514   -3.826818    9.964490    1.485000
   189  Cl    c     5.458673    8.714620    3.511454    1.485000
   190  Cl    c    -9.415706   -5.492039    0.059369    1.485000
   191  Cl    c     9.470704    5.411850    0.059341    1.485000
   192  Cl    c     0.010085  -10.938615    0.073966    1.485000
   193  Cl    c     9.474698   -5.474433    0.073965    1.485000
   194  Sc    c    -5.131578   -5.651931   -7.898321    3.000000
   195  Sc    c    -8.290307    7.083220   -1.440701    3.000000
   196  Sc    c    -1.983402   10.724480   -1.439514    3.000000
   197  Cl    c    -4.255252   -3.832803   -9.383980    1.485000
   198  Cl    s    -0.595596    1.039033   -2.450762   -2.485000
   199  Cl    s    -2.568387   -2.029093   -0.206418   -2.485000
   200  Cl    s     3.048062    1.212100   -0.202600   -2.485000
   201  Cl    s    -3.223941    1.232536   -0.419827   -2.485000
   202  Cl    s     0.550137    3.411059   -0.416487   -2.485000
   203  Cl    s    -1.355456   -2.122985   -2.816907   -2.485000
   204  Cl    s     2.521128    0.114009   -2.812540   -2.485000
   205  Cl    s    -0.001899   -4.110058   -0.223076   -2.485000
   206  Cl    s     3.566573   -2.051558   -0.221214   -2.485000
   207  Cl    s     1.863718   -0.193361    3.732429   -2.485000
   208  Cl    s    -0.763656    1.909389    3.735727   -2.485000
   209  Cl    s    -0.768480   -2.296882    3.742418   -2.485000
   210  Cl    s    -4.132260    0.134212   -2.970784   -2.485000
   211  Cl    s     1.956718    3.646448   -2.967056   -2.485000
   212  Cl    s     2.378465    3.142050    3.741106   -2.485000
   213  Cl    s     2.390579   -4.134140   -2.710746   -2.485000
   214  Cl    s     2.378730   -3.535583    3.741892   -2.485000
   215  Cl    s    -4.413255   -0.194755    3.739850   -2.485000
   216  Cl    s    -0.739910   -5.433534   -2.715580   -2.485000
   217  Cl    s     5.081140   -2.072495   -2.714234   -2.485000
   218  Cl    s     3.115565   -5.390392   -0.174428   -2.485000
   219  Cl    s    -4.439857    3.478174   -2.777549   -2.485000
   220  Cl    s    -0.785554    5.586350   -2.776570   -2.485000
   221  Cl    s    -3.195651   -5.401173   -0.146558   -2.485000
   222  Cl    s     6.282239    0.069953   -0.145077   -2.485000
   223  Cl    s    -3.909343    3.140311    3.732854   -2.485000
   224  Cl    s    -3.924380   -4.096377   -2.643453   -2.485000
   225  Cl    s     5.514733    1.352877   -2.641709   -2.485000
   226  Cl    s     0.435570   -0.196594    6.271124   -2.485000
   227  Cl    s    -6.313364    0.078245   -0.299760   -2.485000
   228  Cl    s     3.095418    5.509976   -0.298488   -2.485000
   229  Cl    s    -3.182818    5.519869   -0.244523   -2.485000
   230  Cl    s    -3.908870   -3.530866    3.735835   -2.485000
   231  Cl    s    -1.263499    5.252579    3.743837   -2.485000
   232  Cl    s    -0.056137   -0.479998   -6.629285   -2.485000
   233  Cl    s    -5.835851    3.458896   -0.218745   -2.485000
   234  Cl    s    -0.071671    6.786569   -0.218070   -2.485000
   235  Cl    s    -1.263782   -5.640181    3.746375   -2.485000
   236  Cl    s     5.519807    1.904818    3.748956   -2.485000
   237  Cl    s    -0.050452    3.158730    6.271067   -2.485000
   238  Cl    s     5.520216   -2.294320    3.748635   -2.485000
   239  Cl    s    -0.049054   -3.548151    6.274610   -2.485000
   240  Cl    s     3.102047    1.898470    6.273373   -2.485000
   241  Cl    s    -3.190119    1.895600    6.264204   -2.485000
   242  Cl    s    -2.685709    1.616414   -6.622724   -2.485000
   243  Cl    s     3.103133   -2.285631    6.269410   -2.485000
   244  Cl    s    -3.192063   -2.285090    6.267804   -2.485000
   245  Cl    s     0.441793   -7.467644   -0.180291   -2.485000
   246  Cl    s     6.251428   -4.113687   -0.179528   -2.485000
   247  Cl    s     3.087876   -1.713224   -6.621823   -2.485000
   248  Cl    s    -6.336165   -4.098747   -0.171145   -2.485000
   249  Cl    s    -3.189564   -1.715428   -6.627289   -2.485000
   250  Cl    s     6.723675    3.441013   -0.170261   -2.485000
   251  Cl    s    -0.053558    3.718654   -6.627681   -2.485000
   252  Cl    s     0.440894   -3.821077   -6.631983   -2.485000
   253  Cl    s    -7.189442    1.377103   -2.764268   -2.485000
   254  Cl    s     2.407688    6.916075   -2.763825   -2.485000
   255  Cl    s     3.584497    1.622719   -6.624490   -2.485000
   256  Cl    s     1.918878   -7.499942   -2.703603   -2.485000
   257  Cl    s     5.541654   -5.409005   -2.703109   -2.485000
   258  Cl    s     5.023616    5.253990    3.744807   -2.485000
   259  Cl    s    -7.064442    1.908111    3.745618   -2.485000
   260  Cl    s    -7.553391   -2.028479   -2.718714   -2.485000
   261  Cl    s     5.539380    5.530049   -2.718151   -2.485000
   262  Cl    s    -3.932526    6.818628   -2.745486   -2.485000
   263  Cl    s    -7.065136   -2.295378    3.748255   -2.485000
   264  Cl    s     5.028515   -5.645851    3.746250   -2.485000
   265  Cl    s    -5.853720   -0.194469    6.273173   -2.485000
   266  Cl    s     2.375924    7.354050    3.750732   -2.485000
   267  Cl    s    -2.712223    5.255503    6.270709   -2.485000
   268  Cl    s     3.087505    4.959403   -6.620782   -2.485000
   269  Cl    s    -2.712222   -5.646296    6.273375   -2.485000
   270  Cl    s    -3.197604    4.965479   -6.626896   -2.485000
   271  Cl    s     2.376567   -7.743169    3.751481   -2.485000
   272  Cl    s     3.577829    5.254028    6.271026   -2.485000
   273  Cl    s     8.168820   -0.194294    3.745701   -2.485000
   274  Cl    s    -4.398233   -7.451542   -2.679532   -2.485000
   275  Cl    s     8.658027    0.086363   -2.679011   -2.485000
   276  Cl    s     6.236314   -0.477840   -6.622108   -2.485000
   277  Cl    s    -3.911841    7.352226    3.747854   -2.485000
   278  Cl    s     3.578775   -5.644312    6.270842   -2.485000
   279  Cl    s    -6.332192   -0.479069   -6.625772   -2.485000
   280  Cl    s     6.725027   -0.195180    6.273405   -2.485000
   281  Cl    s    -8.983426   -2.018661   -0.176683   -2.485000
   282  Cl    s     6.245408    6.774196   -0.176399   -2.485000
   283  Cl    s    -7.056203   -5.364843   -2.696515   -2.485000
   284  Cl    s     8.179429    3.431903   -2.696032   -2.485000
   285  Cl    s    -6.335407    6.807012   -0.192825   -2.485000
   286  Cl    s    -2.721126    8.892880   -0.192596   -2.485000
   287  Cl    s    -0.767829   -1.729820   -9.165224   -2.485000
   288  Cl    s    -7.080733    5.543328   -2.715969   -2.485000
   289  Cl    s    -1.253932    8.907380   -2.715634   -2.485000
   290  Cl    s    -1.257234    1.627360   -9.162304   -2.485000
   291  Cl    s     6.245892    3.157870    6.277093   -2.485000
   292  Cl    s     3.095642   -5.920923   -6.626659   -2.485000
   293  Cl    s    -0.764326    8.599498    3.744986   -2.485000
   294  Cl    s    -3.194791   -5.922174   -6.626458   -2.485000
   295  Cl    s    -3.913555   -7.739428    3.749450   -2.485000
   296  Cl    s    -6.335461    3.163310    6.269842   -2.485000
   297  Cl    s     2.372034   -0.467786   -9.153520   -2.485000
   298  Cl    s    -5.867003   -7.480192   -0.160020   -2.485000
   299  Cl    s     9.417139    1.344273   -0.159553   -2.485000
   300  Cl    s     6.245089   -3.546817    6.277242   -2.485000
   301  Cl    s    -9.471183    1.328334   -0.195522   -2.485000
   302  Cl    s     3.590733    8.869455   -0.195486   -2.485000
   303  Cl    s    -6.336307   -3.551842    6.271999   -2.485000
   304  Cl    s    -5.839173   -3.827758   -6.623064   -2.485000
   305  Cl    s    -0.041906    7.346179    6.271228   -2.485000
   306  Cl    s     0.444655    7.063484   -6.624303   -2.485000
   307  Cl    s    -0.053150   -7.161777   -6.616708   -2.485000
   308  Cl    s    -0.764545   -8.989770    3.746065   -2.485000
   309  Cl    s     6.235395    3.723953   -6.622129   -2.485000
   310  Cl    s    -6.334535    3.719165   -6.626209   -2.485000
   311  Cl    s    -7.547128    5.252536    3.750659   -2.485000
   312  Cl    s     8.664211    3.153279    3.749104   -2.485000
   313  Cl    s    -0.769440   -9.551743   -2.692291   -2.485000
   314  Cl    s     8.661852   -4.106405   -2.692122   -2.485000
   315  Cl    s    -0.042228   -7.734938    6.271602   -2.485000
   316  Cl    s    -3.923494   -0.474367   -9.159080   -2.485000
   317  Cl    s     3.098343   -9.559754   -0.169686   -2.485000
   318  Cl    s     6.735510   -7.460400   -0.169556   -2.485000
   319  Cl    s    -3.189455   -9.546167   -0.182841   -2.485000
   320  Cl    s     9.867536   -2.008194   -0.182903   -2.485000
   321  Cl    s     8.665861   -3.542119    3.748689   -2.485000
   322  Cl    s     1.894543   -3.829307   -9.155778   -2.485000
   323  Cl    s    -7.547380   -5.640382    3.750834   -2.485000
   324  Cl    s     2.370555    3.712523   -9.151505   -2.485000
   325  Cl    s     6.725290   -3.823973   -6.626925   -2.485000
   326  Cl    s    -0.765681   -1.721400   10.195093   -2.485000
   327  Cl    s    -1.262810    1.623044   10.196411   -2.485000
   328  Cl    s    -0.773726    4.976321   -9.156851   -2.485000
   329  Cl    s     2.377892   -0.479022   10.197157   -2.485000
   330  Cl    s   -10.248926    0.061520   -2.711874   -2.485000
   331  Cl    s     5.076783    8.910203   -2.711606   -2.485000
   332  Cl    s     5.033743    1.623263   -9.153947   -2.485000
   333  Cl    s    -3.926129    3.712805   -9.151969   -2.485000
   334  Cl    s    -0.054583  -10.816599   -0.163511   -2.485000
   335  Cl    s     9.400966   -5.357584   -0.163494   -2.485000
   336  Cl    s    -4.393580   -3.829218   -9.149516   -2.485000
   337  Cl    s     5.523684    8.596233    3.743670   -2.485000
   338  Cl    s    -9.478742   -5.369248   -0.176073   -2.485000
   339  Cl    s     9.395492    5.527637   -0.176052   -2.485000
   340  Cl    s    -3.912548   -0.482133   10.195269   -2.485000
   341  Cl    s    -9.473355    5.526153   -0.184026   -2.485000
   342  Cl    s    -0.043019   10.970868   -0.183950   -2.485000
   343  Cl    s     1.880072   -3.826093   10.194991   -2.485000
   344  Cl    s     2.376905    3.721432   10.197465   -2.485000
--------------------------------------------------------------------------------


  Final derivatives for region 1 :

--------------------------------------------------------------------------------
   No.  Atomic          x             y             z            Radius
        Label       (eV/Angs)     (eV/Angs)     (eV/Angs)       (eV/Angs)
--------------------------------------------------------------------------------
     1  Sc    c       0.000740      0.000051      0.001836      0.000000
     2  Sc    c      -0.000112     -0.001123      0.000775      0.000000
[...]
    264 z         11.642631     11.637485    -0.005146    Cartesian   -0.04
    265 x         -7.017760     -7.018673    -0.000912    Cartesian    0.01
    265 y         -1.817078     -1.816886     0.000192    Cartesian   -0.01
    265 z         14.168915     14.164408    -0.004508    Cartesian   -0.03
    266 x          1.211574      1.210972    -0.000602    Cartesian   -0.05
    266 y          5.731618      5.731633     0.000015    Cartesian    0.00
    266 z         11.642631     11.641967    -0.000664    Cartesian   -0.01
    267 x         -3.870942     -3.877175    -0.006233    Cartesian    0.16
    267 y          3.633372      3.633086    -0.000285    Cartesian   -0.01
    267 z         14.168915     14.161944    -0.006971    Cartesian   -0.05
    268 x          1.935244      1.922553    -0.012692    Cartesian   -0.66
    268 y          3.352464      3.336986    -0.015478    Cartesian   -0.46
    268 z          1.263142      1.270453     0.007311    Cartesian    0.58
    269 x         -3.870942     -3.877174    -0.006233    Cartesian    0.16
    269 y         -7.267528     -7.268713    -0.001186    Cartesian    0.02
    269 z         14.168915     14.164610    -0.004305    Cartesian   -0.03
    270 x         -4.358393     -4.362556    -0.004163    Cartesian    0.10
    270 y          3.352464      3.343062    -0.009403    Cartesian   -0.28
    270 z          1.263142      1.264339     0.001197    Cartesian    0.09
    271 x          1.211121      1.211615     0.000494    Cartesian    0.04
    271 y         -9.365513     -9.365586    -0.000074    Cartesian    0.00
    271 z         11.642631     11.642716     0.000085    Cartesian    0.00
    272 x          2.422696      2.412877    -0.009818    Cartesian   -0.41
    272 y          3.633372      3.631611    -0.001761    Cartesian   -0.05
    272 z         14.168915     14.162261    -0.006654    Cartesian   -0.05
    273 x          7.017760      7.003868    -0.013892    Cartesian   -0.20
    273 y         -1.816555     -1.816711    -0.000156    Cartesian    0.01
    273 z         11.642631     11.636936    -0.005695    Cartesian   -0.05
    274 x         -5.569514     -5.563185     0.006329    Cartesian   -0.11
    274 y         -9.083821     -9.073959     0.009862    Cartesian   -0.11
    274 z          5.189744      5.211703     0.021958    Cartesian    0.42
    275 x          7.505211      7.493075    -0.012136    Cartesian   -0.16
    275 y         -1.535648     -1.536055    -0.000407    Cartesian    0.03
    275 z          5.189744      5.212224     0.022479    Cartesian    0.43
    276 x          5.082063      5.071361    -0.010702    Cartesian   -0.21
    276 y         -2.097985     -2.100257    -0.002272    Cartesian    0.11
    276 z          1.263142      1.269127     0.005985    Cartesian    0.47
    277 x         -5.082063     -5.076793     0.005269    Cartesian   -0.10
    277 y          5.731618      5.729809    -0.001809    Cartesian   -0.03
    277 z         11.642631     11.639089    -0.003542    Cartesian   -0.03
    278 x          2.422696      2.413823    -0.008873    Cartesian   -0.37
    278 y         -7.267528     -7.266730     0.000798    Cartesian   -0.01
    278 z         14.168915     14.162077    -0.006838    Cartesian   -0.05
    279 x         -7.505211     -7.497144     0.008067    Cartesian   -0.11
    279 y         -2.097985     -2.101487    -0.003501    Cartesian    0.17
    279 z          1.263142      1.265463     0.002320    Cartesian    0.18
    280 x          5.569514      5.560075    -0.009440    Cartesian   -0.17
    280 y         -1.817078     -1.817597    -0.000519    Cartesian    0.03
    280 z         14.168915     14.164640    -0.004276    Cartesian   -0.03
    281 x        -10.164579    -10.148379     0.016200    Cartesian   -0.16
    281 y         -3.633895     -3.641079    -0.007184    Cartesian    0.20
    281 z          7.716029      7.714552    -0.001476    Cartesian   -0.02
    282 x          5.082063      5.080456    -0.001607    Cartesian   -0.03
    282 y          5.169281      5.151779    -0.017502    Cartesian   -0.34
    282 z          7.716029      7.714836    -0.001192    Cartesian   -0.02
    283 x         -8.228881     -8.221155     0.007726    Cartesian   -0.09
    283 y         -6.986098     -6.987260    -0.001163    Cartesian    0.02
    283 z          5.189744      5.194720     0.004976    Cartesian    0.10
    284 x          7.017760      7.014477    -0.003283    Cartesian   -0.05
    284 y          1.817078      1.809486    -0.007593    Cartesian   -0.42
    284 z          5.189744      5.195203     0.005459    Cartesian    0.11
    285 x         -7.505211     -7.500359     0.004852    Cartesian   -0.06
    285 y          5.169281      5.184595     0.015314    Cartesian    0.30
    285 z          7.716029      7.698410    -0.017618    Cartesian   -0.23
    286 x         -3.870942     -3.886078    -0.015137    Cartesian    0.39
    286 y          7.267005      7.270463     0.003459    Cartesian    0.05
    286 z          7.716029      7.698639    -0.017390    Cartesian   -0.23
    287 x         -1.935244     -1.932782     0.002463    Cartesian   -0.13
    287 y         -3.352464     -3.352237     0.000227    Cartesian   -0.01
    287 z         -1.263142     -1.273989    -0.010847    Cartesian    0.86
    288 x         -8.228881     -8.245685    -0.016803    Cartesian    0.20
    288 y          3.914802      3.920911     0.006109    Cartesian    0.16
    288 z          5.189744      5.175266    -0.014479    Cartesian   -0.28
    289 x         -2.422696     -2.418884     0.003812    Cartesian   -0.16
    289 y          7.267528      7.284963     0.017435    Cartesian    0.24
    289 z          5.189744      5.175601    -0.014144    Cartesian   -0.27
    290 x         -2.422696     -2.422186     0.000510    Cartesian   -0.02
    290 y          0.000261      0.004942     0.004681    Cartesian 1790.09
    290 z         -1.263142     -1.271069    -0.007927    Cartesian    0.63
    291 x          5.082063      5.080940    -0.001123    Cartesian   -0.02
    291 y          1.535648      1.535453    -0.000195    Cartesian   -0.01
    291 z         14.168915     14.168328    -0.000588    Cartesian   -0.00
    292 x          1.935244      1.930690    -0.004554    Cartesian   -0.24
    292 y         -7.548435     -7.543340     0.005094    Cartesian   -0.07
    292 z          1.263142      1.264576     0.001434    Cartesian    0.11
    293 x         -1.935697     -1.929279     0.006419    Cartesian   -0.33
    293 y          6.985836      6.977081    -0.008755    Cartesian   -0.13
    293 z         11.642631     11.636221    -0.006410    Cartesian   -0.06
    294 x         -4.358393     -4.359743    -0.001350    Cartesian    0.03
    294 y         -7.548435     -7.544591     0.003844    Cartesian   -0.05
    294 z          1.263142      1.264777     0.001635    Cartesian    0.13
    295 x         -5.082516     -5.078507     0.004009    Cartesian   -0.08
    295 y         -9.365513     -9.361845     0.003668    Cartesian   -0.04
    295 z         11.642631     11.640685    -0.001946    Cartesian   -0.02
    296 x         -7.505211     -7.500413     0.004798    Cartesian   -0.06
    296 y          1.535648      1.540893     0.005245    Cartesian    0.34
    296 z         14.168915     14.161077    -0.007839    Cartesian   -0.06
    297 x          1.211121      1.207081    -0.004040    Cartesian   -0.33
    297 y         -2.098247     -2.090203     0.008044    Cartesian   -0.38
    297 z         -1.263142     -1.262285     0.000857    Cartesian   -0.07
    298 x         -7.017760     -7.031956    -0.014196    Cartesian    0.20
    298 y         -9.084344     -9.102609    -0.018265    Cartesian    0.20
    298 z          7.716029      7.731215     0.015186    Cartesian    0.20
    299 x          8.228881      8.252187     0.023305    Cartesian    0.28
    299 y         -0.281169     -0.278144     0.003024    Cartesian   -1.08
    299 z          7.716029      7.731682     0.015654    Cartesian    0.20
    300 x          5.082516      5.080136    -0.002379    Cartesian   -0.05
    300 y         -5.169020     -5.169234    -0.000215    Cartesian    0.00
    300 z         14.168915     14.168477    -0.000438    Cartesian   -0.00
    301 x        -10.652030    -10.636135     0.015895    Cartesian   -0.15
    301 y         -0.281169     -0.294083    -0.012914    Cartesian    4.59
    301 z          7.716029      7.695713    -0.020316    Cartesian   -0.26
    302 x          2.422696      2.425781     0.003086    Cartesian    0.13
    302 y          7.267005      7.247037    -0.019967    Cartesian   -0.27
    302 z          7.716029      7.695749    -0.020279    Cartesian   -0.26
    303 x         -7.504758     -7.501259     0.003499    Cartesian   -0.05
    303 y         -5.169020     -5.174259    -0.005240    Cartesian    0.10
    303 z         14.168915     14.163234    -0.005682    Cartesian   -0.04
    304 x         -7.017760     -7.004126     0.013635    Cartesian   -0.19
    304 y         -5.450711     -5.450176     0.000536    Cartesian   -0.01
    304 z          1.263142      1.268171     0.005028    Cartesian    0.40
    305 x         -1.211121     -1.206859     0.004263    Cartesian   -0.35
    305 y          5.731880      5.723762    -0.008117    Cartesian   -0.14
    305 z         14.168915     14.162463    -0.006452    Cartesian   -0.05
    306 x         -0.724123     -0.720297     0.003826    Cartesian   -0.53
    306 y          5.450188      5.441067    -0.009121    Cartesian   -0.17
    306 z          1.263142      1.266932     0.003790    Cartesian    0.30
    307 x         -1.211121     -1.218103    -0.006981    Cartesian    0.58
    307 y         -8.802653     -8.784194     0.018458    Cartesian   -0.21
    307 z          1.263142      1.274527     0.011385    Cartesian    0.90
    308 x         -1.935244     -1.929498     0.005747    Cartesian   -0.30
    308 y        -10.619731    -10.612187     0.007544    Cartesian   -0.07
    308 z         11.642631     11.637300    -0.005331    Cartesian   -0.05
    309 x          5.082516      5.070442    -0.012073    Cartesian   -0.24
    309 y          2.098247      2.101535     0.003289    Cartesian    0.16
    309 z          1.263142      1.269106     0.005964    Cartesian    0.47
    310 x         -7.504758     -7.499487     0.005271    Cartesian   -0.07
    310 y          2.098247      2.096748    -0.001499    Cartesian   -0.07
    310 z          1.263142      1.265026     0.001884    Cartesian    0.15
    311 x         -8.716333     -8.712081     0.004252    Cartesian   -0.05
    311 y          3.633895      3.630119    -0.003776    Cartesian   -0.10
    311 z         11.642631     11.641894    -0.000737    Cartesian   -0.01
    312 x          7.504758      7.499259    -0.005500    Cartesian   -0.07
    312 y          1.535386      1.530862    -0.004524    Cartesian   -0.29
    312 z         11.642631     11.640340    -0.002292    Cartesian   -0.02
    313 x         -1.935697     -1.934392     0.001305    Cartesian   -0.07
    313 y        -11.182329    -11.174161     0.008169    Cartesian   -0.07
    313 z          5.189744      5.198944     0.009199    Cartesian    0.18
    314 x          7.504758      7.496899    -0.007859    Cartesian   -0.10
    314 y         -5.731880     -5.728822     0.003058    Cartesian   -0.05
    314 z          5.189744      5.199113     0.009369    Cartesian    0.18
    315 x         -1.211574     -1.207180     0.004394    Cartesian   -0.36
    315 y         -9.365251     -9.357355     0.007897    Cartesian   -0.08
    315 z         14.168915     14.162837    -0.006079    Cartesian   -0.04
    316 x         -5.082516     -5.088446    -0.005930    Cartesian    0.12
    316 y         -2.098247     -2.096785     0.001462    Cartesian   -0.07
    316 z         -1.263142     -1.267845    -0.004703    Cartesian    0.37
    317 x          1.935244      1.933390    -0.001854    Cartesian   -0.10
    317 y        -11.182068    -11.182172    -0.000104    Cartesian    0.00
    317 z          7.716029      7.721549     0.005521    Cartesian    0.07
    318 x          5.569514      5.570557     0.001043    Cartesian    0.02
    318 y         -9.084344     -9.082817     0.001527    Cartesian   -0.02
    318 z          7.716029      7.721679     0.005650    Cartesian    0.07
    319 x         -4.358393     -4.354407     0.003986    Cartesian   -0.09
    319 y        -11.182068    -11.168584     0.013484    Cartesian   -0.12
    319 z          7.716029      7.708394    -0.007635    Cartesian   -0.10
    320 x          8.716333      8.702584    -0.013749    Cartesian   -0.16
    320 y         -3.633895     -3.630611     0.003283    Cartesian   -0.09
    320 z          7.716029      7.708332    -0.007696    Cartesian   -0.10
    321 x          7.505211      7.500909    -0.004303    Cartesian   -0.06
    321 y         -5.169281     -5.164537     0.004744    Cartesian   -0.09
    321 z         11.642631     11.639924    -0.002707    Cartesian   -0.02
    322 x          0.724123      0.729591     0.005468    Cartesian    0.76
    322 y         -5.450188     -5.451725    -0.001536    Cartesian    0.03
    322 z         -1.263142     -1.264543    -0.001401    Cartesian    0.11
    323 x         -8.716333     -8.712332     0.004001    Cartesian   -0.05
    323 y         -7.267005     -7.262799     0.004206    Cartesian   -0.06
    323 z         11.642631     11.642069    -0.000562    Cartesian   -0.00
    324 x          1.211574      1.205603    -0.005972    Cartesian   -0.49
    324 y          2.097985      2.090106    -0.007879    Cartesian   -0.38
    324 z         -1.263142     -1.260270     0.002873    Cartesian   -0.23
    325 x          5.569514      5.560338    -0.009176    Cartesian   -0.16
    325 y         -5.450711     -5.446390     0.004321    Cartesian   -0.08
    325 z          1.263142      1.264310     0.001168    Cartesian    0.09
    326 x         -1.935244     -1.930633     0.004611    Cartesian   -0.24
    326 y         -3.352464     -3.343818     0.008647    Cartesian   -0.26
    326 z         18.095518     18.086328    -0.009189    Cartesian   -0.05
    327 x         -2.422696     -2.427762    -0.005067    Cartesian    0.21
    327 y          0.000261      0.000627     0.000366    Cartesian  139.84
    327 z         18.095518     18.087646    -0.007872    Cartesian   -0.04
    328 x         -1.935697     -1.938678    -0.002981    Cartesian    0.15
    328 y          3.352203      3.353904     0.001701    Cartesian    0.05
    328 z         -1.263142     -1.265616    -0.002474    Cartesian    0.20
    329 x          1.211121      1.212940     0.001818    Cartesian    0.15
    329 y         -2.098247     -2.101440    -0.003193    Cartesian    0.15
    329 z         18.095518     18.088392    -0.007125    Cartesian   -0.04
    330 x        -11.375700    -11.413878    -0.038178    Cartesian    0.34
    330 y         -1.535648     -1.560897    -0.025250    Cartesian    1.64
    330 z          5.189744      5.179361    -0.010384    Cartesian   -0.20
    331 x          3.870942      3.911831     0.040889    Cartesian    1.06
    331 y          7.267528      7.287786     0.020259    Cartesian    0.28
    331 z          5.189744      5.179629    -0.010116    Cartesian   -0.19
    332 x          3.870942      3.868790    -0.002151    Cartesian   -0.06
    332 y          0.000261      0.000846     0.000585    Cartesian  223.64
    332 z         -1.263142     -1.262712     0.000430    Cartesian   -0.03
    333 x         -5.082063     -5.091082    -0.009019    Cartesian    0.18
    333 y          2.097985      2.090388    -0.007597    Cartesian   -0.36
    333 z         -1.263142     -1.260734     0.002408    Cartesian   -0.19
    334 x         -1.211121     -1.219535    -0.008414    Cartesian    0.69
    334 y        -12.436286    -12.439016    -0.002731    Cartesian    0.02
    334 z          7.716029      7.727724     0.011696    Cartesian    0.15
    335 x          8.229334      8.236014     0.006680    Cartesian    0.08
    335 y         -6.985836     -6.980002     0.005835    Cartesian   -0.08
    335 z          7.716029      7.727741     0.011713    Cartesian    0.15
    336 x         -5.569514     -5.558532     0.010982    Cartesian   -0.20
    336 y         -5.450188     -5.451635    -0.001447    Cartesian    0.03
    336 z         -1.263142     -1.258281     0.004861    Cartesian   -0.38
    337 x          4.357940      4.358731     0.000791    Cartesian    0.02
    337 y          6.985836      6.973816    -0.012020    Cartesian   -0.17
    337 z         11.642631     11.634905    -0.007726    Cartesian   -0.07
    338 x        -10.651577    -10.643694     0.007883    Cartesian   -0.07
    338 y         -6.985836     -6.991666    -0.005830    Cartesian    0.08
    338 z          7.716029      7.715162    -0.000866    Cartesian   -0.01
    339 x          8.229334      8.230540     0.001205    Cartesian    0.01
    339 y          3.915063      3.905220    -0.009844    Cartesian   -0.25
    339 z          7.716029      7.715183    -0.000846    Cartesian   -0.01
    340 x         -5.082516     -5.077500     0.005015    Cartesian   -0.10
    340 y         -2.098247     -2.104551    -0.006304    Cartesian    0.30
    340 z         18.095518     18.086504    -0.009014    Cartesian   -0.05
    341 x        -10.651577    -10.638307     0.013270    Cartesian   -0.12
    341 y          3.915063      3.903735    -0.011328    Cartesian   -0.29
    341 z          7.716029      7.707209    -0.008820    Cartesian   -0.11
    342 x         -1.211121     -1.207971     0.003150    Cartesian   -0.26
    342 y          9.365513      9.348451    -0.017062    Cartesian   -0.18
    342 z          7.716029      7.707285    -0.008744    Cartesian   -0.11
    343 x          0.724123      0.715119    -0.009004    Cartesian   -1.24
    343 y         -5.450188     -5.448510     0.001678    Cartesian   -0.03
    343 z         18.095518     18.086226    -0.009292    Cartesian   -0.05
    344 x          1.211574      1.211953     0.000379    Cartesian    0.03
    344 y          2.097985      2.099015     0.001030    Cartesian    0.05
    344 z         18.095518     18.088700    -0.006818    Cartesian   -0.04
--------------------------------------------------------------------------------


  Time to end of optimisation  =       73.0111 seconds


  Peak dynamic memory used =      20.96 MB 


  Timing analysis for GULP :

--------------------------------------------------------------------------------
  Task / Subroutine                                          Time (Seconds)
--------------------------------------------------------------------------------
  Calculation of reciprocal space energy and derivatives          0.0028
  Calculation of reciprocal space energy using symmetry           0.0306
  Calculation of real space energy and derivatives                0.0152
  Calculation of real space energy using symmetry                 0.4965
  Calculation for region 1 energy and derivatives (2-b)          17.4038
  Calculation for region 2a energy                               52.1534
  Calculation for region 2b energy                                0.0180
  Calculation and manipulation of Hessian matrix                  0.0042
  Calculation of matrix inversion                                 2.7154
  Symmetry generation of equivalent positions                     0.0011
  Global summation overhead                                       0.0002
--------------------------------------------------------------------------------
  Total CPU time                                                 73.0112
--------------------------------------------------------------------------------


  Dump file written as ScCl3.grs



  **** GULP has completed with   2 warnings - beware! ****

  Job Finished at 11:34.08 18th August     2021                               

