********************************************************************************
*                       GENERAL UTILITY LATTICE PROGRAM                        *
*                                 Julian Gale                                  *
*                       Curtin Institute for Computation                       *
*                    School of Molecular and Life Sciences                     *
*                    Curtin University, Western Australia                      *
********************************************************************************
* Version = 5.2.0 * Last modified =  10th September 2020                       *
********************************************************************************
*  optimise     - perform optimisation run                                     *
*  conp         - constant pressure calculation                                *
*  property     - calculate properties for final geometry                      *
*  defect       - perform defect calculation after bulk run                    *
*  compare      - compare initial and final structures                         *
********************************************************************************

  Job Started  at 11:32.54 18th August     2021                               

  Number of CPUs =     1


  Total number of configurations input =      1

********************************************************************************
*  Input for Configuration =   1                                               *
********************************************************************************

  Formula = Sc2Cl6                                                      

  Number of irreducible atoms/shells =       3


  Total number atoms/shells =      14

  Dimensionality = 3               :  Bulk   


  Symmetry :

  Crystal family                   :  Hexagonal   
  Crystal class  (Groth - 1921)    :  Trigonal Rhombohedral                

  Space group (centrosymmetric)    :  R -3            

  Patterson group                  :  R -3     

  Cartesian lattice vectors (Angstroms) :

        3.246588    1.874418    6.441540
       -3.246588    1.874418    6.441540
        0.000000   -3.748837    6.441540

  Cell parameters (Angstroms/Degrees):

  a =       7.4530    alpha =  51.6480
  b =       7.4530    beta  =  51.6480
  c =       7.4530    gamma =  51.6480

  Initial cell volume =         235.198534 Angs**3

  Temperature of configuration =   0.00     K 

  Pressure of configuration =         0.000 GPa 

  Fractional coordinates of asymmetric unit :

--------------------------------------------------------------------------------
   No.  Atomic       x           y          z         Charge      Occupancy
        Label      (Frac)      (Frac)     (Frac)        (e)         (Frac)  
--------------------------------------------------------------------------------
      1 Sc    c    0.333900    0.333900    0.333900 *   3.00000    1.000000    
      2 Cl    c    0.073700 *  0.443900 *  0.705300 *   1.48500    1.000000    
      3 Cl    s    0.073700 *  0.443900 *  0.705300 *  -2.48500    1.000000    
--------------------------------------------------------------------------------


  Constraints : 

--------------------------------------------------------------------------------
  Constraint no.      Unconstrained     Constrained    Coefficient    Offset
                         Variable         Variable
--------------------------------------------------------------------------------
           1              Strain 1        Strain 2       1.00000      0.0000
--------------------------------------------------------------------------------


********************************************************************************
*  General input information                                                   *
********************************************************************************

  Species output for all configurations : 

--------------------------------------------------------------------------------
  Species    Type    Atomic    Atomic    Charge       Radii (Angs)     Library
                     Number     Mass       (e)     Cova   Ionic  VDW   Symbol
--------------------------------------------------------------------------------
    Sc       Core       21      44.96   3.000000   1.440  0.000  2.150          
    Cl       Core       17      35.45   1.485000   0.990  0.000  1.650          
    Cl       Shell      17       0.00  -2.485000   0.990  0.000  1.650          
--------------------------------------------------------------------------------


  Lattice summation method               =    Ewald          (3-D)
                                         =    Parry          (2-D)
                                         =    Saunders et al (1-D)
  Accuracy factor for lattice sums       =   12.000


  Analytic derivatives to be used

  Time limit = Infinity

  Maximum range for interatomic potentials =    100000.000000 Angstroms

  General interatomic potentials :

--------------------------------------------------------------------------------
Atom  Types   Potential      Parameter       Value         Units   Cutoffs(Ang)
  1     2                                                            Min /  Max 
--------------------------------------------------------------------------------
Cl   c Cl   s Spring (c-s)  Spring k 2       29.380000    eV*Ang^-2 0.000  0.800
                            Spring k 4       0.0000000    eV*Ang^-4 
--------------------------------------------------------------------------------
Sc   c Cl   s Buckingham    Buckingham A     12131.350    eV        0.000 12.000
                            Buckingham rho  0.25070000    Ang       
                            Buckingham C     0.0000000    eV*Ang^6  
--------------------------------------------------------------------------------
Cl   s Cl   s Buckingham    Buckingham A     1227.2000    eV        0.000 12.000
                            Buckingham rho  0.32100000    Ang       
                            Buckingham C     14.530000    eV*Ang^6  
--------------------------------------------------------------------------------

********************************************************************************
*  Output for configuration   1                                                *
********************************************************************************


  Components of energy : 

--------------------------------------------------------------------------------
  Interatomic potentials     =           6.77737779 eV    
  Monopole - monopole (real) =         -30.86300284 eV    
  Monopole - monopole (recip)=         -65.52201623 eV    
  Monopole - monopole (total)=         -96.38501907 eV    
--------------------------------------------------------------------------------
  Total lattice energy : 
    Primitive unit cell      =         -89.60764128 eV    
    Non-primitive unit cell  =        -268.82292384 eV    
--------------------------------------------------------------------------------
  Total lattice energy (in kJmol-1): 
    Primitive unit cell      =           -8645.7676 kJ/(mole unit cells)
    Non-primitive unit cell  =          -25937.3028 kJ/(mole unit cells)
--------------------------------------------------------------------------------


  Number of variables =        9

  Maximum number of calculations  =          1000
  Maximum Hessian update interval =            10
  Maximum step size               =   1.000000000
  Maximum parameter tolerance     =   0.000010000
  Maximum function  tolerance     =   0.000010000
  Maximum gradient  tolerance     =   0.001000000
  Maximum gradient  component     =   0.010000000

  Symmetry constrained optimisation

  Symmetry used for second derivatives

  Cell parameters to be optimised using strains

  Newton-Raphson optimiser to be used

  BFGS hessian update to be used

  Lower half triangular hessian to be used

  Start of bulk optimisation :

  Cycle:      0 Energy:       -89.607641  Gnorm:    194.660938  CPU:    0.010
  ** Hessian calculated **
  Cycle:      1 Energy:       -99.336245  Gnorm:     16.922396  CPU:    0.018
  Cycle:      2 Energy:       -99.561570  Gnorm:      7.561347  CPU:    0.029
  Cycle:      3 Energy:       -99.729576  Gnorm:      4.412393  CPU:    0.039
  Cycle:      4 Energy:       -99.829400  Gnorm:      2.218678  CPU:    0.050
  Cycle:      5 Energy:       -99.844572  Gnorm:      0.723795  CPU:    0.058
  Cycle:      6 Energy:       -99.846381  Gnorm:      0.448826  CPU:    0.069
  Cycle:      7 Energy:       -99.846853  Gnorm:      0.344817  CPU:    0.078
  Cycle:      8 Energy:       -99.849123  Gnorm:      0.319075  CPU:    0.092
  Cycle:      9 Energy:       -99.851112  Gnorm:      0.253552  CPU:    0.105
  Cycle:     10 Energy:       -99.852597  Gnorm:      0.161985  CPU:    0.117
  ** Hessian calculated **
  Cycle:     11 Energy:       -99.854095  Gnorm:      0.114649  CPU:    0.134
  Cycle:     12 Energy:       -99.855517  Gnorm:      0.062367  CPU:    0.145
  Cycle:     13 Energy:       -99.856271  Gnorm:      0.091299  CPU:    0.154
  Cycle:     14 Energy:       -99.856398  Gnorm:      0.057833  CPU:    0.165
  Cycle:     15 Energy:       -99.709969  Gnorm:      9.382415  CPU:    0.200
  ** Hessian calculated **
  Cycle:     16 Energy:       -99.834592  Gnorm:      3.493936  CPU:    0.216
  Cycle:     17 Energy:       -99.855984  Gnorm:      0.183406  CPU:    0.225
  Cycle:     18 Energy:       -99.856377  Gnorm:      0.024886  CPU:    0.236
  ** Hessian calculated **
  Cycle:     19 Energy:       -99.856378  Gnorm:      0.010051  CPU:    0.247
  Cycle:     20 Energy:       -99.856379  Gnorm:      0.013393  CPU:    0.256
  Cycle:     21 Energy:       -99.856379  Gnorm:      0.009613  CPU:    0.265
  Cycle:     22 Energy:       -99.856380  Gnorm:      0.011718  CPU:    0.273
  Cycle:     23 Energy:       -99.856381  Gnorm:      0.013744  CPU:    0.282
  Cycle:     24 Energy:       -99.856381  Gnorm:      0.012669  CPU:    0.291
  Cycle:     25 Energy:       -99.856382  Gnorm:      0.013916  CPU:    0.300
  Cycle:     26 Energy:       -99.856383  Gnorm:      0.012516  CPU:    0.308
  Cycle:     27 Energy:       -99.856383  Gnorm:      0.006850  CPU:    0.317
  Cycle:     28 Energy:       -99.856383  Gnorm:      0.005130  CPU:    0.326
  ** Hessian calculated **
  Cycle:     29 Energy:       -99.856383  Gnorm:      0.005098  CPU:    0.338
  Cycle:     30 Energy:       -99.856383  Gnorm:      0.005050  CPU:    0.346
  Cycle:     31 Energy:       -99.856384  Gnorm:      0.004978  CPU:    0.355
  Cycle:     32 Energy:       -99.856384  Gnorm:      0.004870  CPU:    0.364
  Cycle:     33 Energy:       -99.856385  Gnorm:      0.004708  CPU:    0.372
  Cycle:     34 Energy:       -99.856385  Gnorm:      0.004465  CPU:    0.381
  Cycle:     35 Energy:       -99.856387  Gnorm:      0.004100  CPU:    0.390
  Cycle:     36 Energy:       -99.856389  Gnorm:      0.003183  CPU:    0.401
  Cycle:     37 Energy:       -99.856390  Gnorm:      0.002732  CPU:    0.412
  Cycle:     38 Energy:       -99.856390  Gnorm:      0.002622  CPU:    0.423
  ** Hessian calculated **
  Cycle:     39 Energy:       -99.856390  Gnorm:      0.002617  CPU:    0.444
  Cycle:     40 Energy:       -99.856390  Gnorm:      0.002611  CPU:    0.459
  Cycle:     41 Energy:       -99.856390  Gnorm:      0.002596  CPU:    0.474
  Cycle:     42 Energy:       -99.856390  Gnorm:      0.002573  CPU:    0.489
  Cycle:     43 Energy:       -99.856391  Gnorm:      0.002556  CPU:    0.507
  Cycle:     44 Energy:       -99.856391  Gnorm:      0.002551  CPU:    0.515
  Cycle:     45 Energy:       -99.856376  Gnorm:      0.010367  CPU:    0.542
  ** Hessian calculated **
  Cycle:     46 Energy:       -99.856376  Gnorm:      0.003162  CPU:    0.554
  Cycle:     47 Energy:       -99.856376  Gnorm:      0.004154  CPU:    0.562
  Cycle:     48 Energy:       -99.856376  Gnorm:      0.004258  CPU:    0.571
  Cycle:     49 Energy:       -99.856376  Gnorm:      0.003063  CPU:    0.580
  Cycle:     50 Energy:       -99.856376  Gnorm:      0.003213  CPU:    0.589
  Cycle:     51 Energy:       -99.856376  Gnorm:      0.002448  CPU:    0.597
  Cycle:     52 Energy:       -99.856376  Gnorm:      0.002432  CPU:    0.606
  Cycle:     53 Energy:       -99.856376  Gnorm:      0.002202  CPU:    0.614
  Cycle:     54 Energy:       -99.856376  Gnorm:      0.003030  CPU:    0.623
  Cycle:     55 Energy:       -99.856377  Gnorm:      0.003988  CPU:    0.631
  ** Hessian calculated **
  Cycle:     56 Energy:       -99.856377  Gnorm:      0.003870  CPU:    0.643
  Cycle:     57 Energy:       -99.856377  Gnorm:      0.003694  CPU:    0.652
  Cycle:     58 Energy:       -99.856377  Gnorm:      0.003429  CPU:    0.660
  Cycle:     59 Energy:       -99.856377  Gnorm:      0.003032  CPU:    0.668
  Cycle:     60 Energy:       -99.856378  Gnorm:      0.002436  CPU:    0.678
  Cycle:     61 Energy:       -99.856378  Gnorm:      0.001545  CPU:    0.686


  **** Optimisation achieved ****


  Final energy =     -99.85637867 eV
  Final Gnorm  =       0.00022970

  Components of energy : 

--------------------------------------------------------------------------------
  Interatomic potentials     =          20.55356182 eV    
  Monopole - monopole (real) =          80.99460097 eV    
  Monopole - monopole (recip)=        -201.40454146 eV    
  Monopole - monopole (total)=        -120.40994049 eV    
--------------------------------------------------------------------------------
  Total lattice energy : 
    Primitive unit cell      =         -99.85637867 eV    
    Non-primitive unit cell  =        -299.56913600 eV    
--------------------------------------------------------------------------------
  Total lattice energy (in kJmol-1): 
    Primitive unit cell      =           -9634.6141 kJ/(mole unit cells)
    Non-primitive unit cell  =          -28903.8423 kJ/(mole unit cells)
--------------------------------------------------------------------------------

  Final asymmetric unit coordinates :

--------------------------------------------------------------------------------
   No.  Atomic        x           y           z         Radius
        Label       (Frac)      (Frac)      (Frac)       (Angs) 
--------------------------------------------------------------------------------
     1  Sc    c     0.333302    0.333302    0.333302    0.000000
     2  Cl    c     0.077345    0.440528    0.713912    0.000000
     3  Cl    s     0.065297    0.450169    0.680282    0.000000
--------------------------------------------------------------------------------

  Final Cartesian lattice vectors (Angstroms) :

        3.146819    1.816817    6.452887
       -3.146819    1.816817    6.452887
        0.000000   -3.633633    6.452887


  Final cell parameters and derivatives :

--------------------------------------------------------------------------------
       a            7.405608 Angstrom     dE/de1(xx)    -0.000123 eV/strain
       b            7.405608 Angstrom     dE/de2(yy)     0.000000 eV/strain
       c            7.405608 Angstrom     dE/de3(zz)    -0.000049 eV/strain
       alpha       50.291669 Degrees      dE/de4(yz)     0.000000 eV/strain
       beta        50.291669 Degrees      dE/de5(xz)     0.000000 eV/strain
       gamma       50.291669 Degrees      dE/de6(xy)     0.000000 eV/strain
--------------------------------------------------------------------------------

  Primitive cell volume =           221.354351 Angs**3

  Density of cell =      2.270208 g/cm**3

  Non-primitive lattice parameters :

  a    =     6.293637  b   =     6.293637  c    =    19.358660
  alpha=    90.000000  beta=    90.000000  gamma=   120.000000

  Non-primitive cell volume =           664.063053 Angs**3


  Final internal derivatives :

--------------------------------------------------------------------------------
   No.  Atomic          a             b             c           Radius
        Label          (eV)          (eV)          (eV)        (eV/Angs)
--------------------------------------------------------------------------------
      1 Sc    c       0.000000      0.000000      0.000333      0.000000
      2 Cl    c      -0.000512      0.000026      0.001871      0.000000
      3 Cl    s      -0.000302      0.000461     -0.000278      0.000000
--------------------------------------------------------------------------------
  Maximum abs         0.000512      0.000461      0.001871      0.000000
--------------------------------------------------------------------------------

  Comparison of initial and final structures : 

--------------------------------------------------------------------------------
  Parameter   Initial value   Final value   Difference    Units      Percent
--------------------------------------------------------------------------------
    Volume       705.595603    664.063053   -41.532550    Angs**3     -5.89
    a              6.493176      6.293637    -0.199538    Angstroms   -3.07
    b              6.493176      6.293637    -0.199538    Angstroms   -3.07
    c             19.324619     19.358660     0.034041    Angstroms    0.18
    alpha         90.000000     90.000000     0.000000    Degrees      0.00
    beta          90.000000     90.000000     0.000000    Degrees      0.00
    gamma        120.000000    120.000000     0.000000    Degrees      0.00
      1 x          0.000000      0.000000     0.000000    Fractional   0.00
      1 y          0.000000      0.000000     0.000000    Fractional   0.00
      1 z          0.333900      0.333302     0.000598    Fractional   0.18
      2 x          0.666067      0.666750     0.000683    Fractional   0.10
      2 y          0.702333      0.696683     0.005650    Fractional   0.80
      2 z          0.407633      0.410595     0.002962    Fractional   0.73
      3 x          0.666067      0.666715     0.000648    Fractional   0.10
      3 y          0.702333      0.718301     0.015968    Fractional   2.27
      3 z          0.407633      0.398583     0.009051    Fractional   2.22
--------------------------------------------------------------------------------


  Born effective charge tensors : 

-------------------------------------------------------------------------------
  Atom             x           y             z
-------------------------------------------------------------------------------
    1 Sc    x       1.8547     -0.0008      0.0000
            y       0.0008      1.8547      0.0000
            z       0.0000      0.0000      1.3341
-------------------------------------------------------------------------------
    2 Cl    x      -0.6622     -0.0739     -0.0054
            y      -0.0744     -0.5743      0.0077
            z      -0.0118      0.0242     -0.4447
-------------------------------------------------------------------------------




  Elastic Constant Matrix: (Units=GPa)

-------------------------------------------------------------------------------
  Indices      1         2         3         4         5         6    
-------------------------------------------------------------------------------
       1     59.0042   36.7253    0.0676   -0.0391    0.0164    0.0000
       2     36.7253   59.0042    0.0676    0.0391   -0.0164   -0.0000
       3      0.0676    0.0676    1.3662   -0.0000   -0.0000    0.0000
       4     -0.0391    0.0391   -0.0000    0.1362   -0.0000   -0.0164
       5      0.0164   -0.0164   -0.0000   -0.0000    0.1362   -0.0391
       6      0.0000   -0.0000    0.0000   -0.0164   -0.0391   11.1394
-------------------------------------------------------------------------------


  Elastic Compliance Matrix: (Units=1/GPa)

-------------------------------------------------------------------------------
  Indices      1         2         3         4         5         6    
-------------------------------------------------------------------------------
       1    0.027693 -0.017246 -0.000517  0.012917 -0.005403 -0.000000
       2   -0.017246  0.027693 -0.000517 -0.012917  0.005403  0.000000
       3   -0.000517 -0.000517  0.731998 -0.000000  0.000000 -0.000000
       4    0.012917 -0.012917 -0.000000  7.352608  0.000000  0.010807
       5   -0.005403  0.005403  0.000000  0.000000  7.352608  0.025834
       6   -0.000000  0.000000 -0.000000  0.010807  0.025834  0.089878
-------------------------------------------------------------------------------

  Mechanical properties :

-------------------------------------------------------------------------------
  Convention :                    Reuss         Voigt         Hill
-------------------------------------------------------------------------------
  Bulk  Modulus (GPa)     =       1.33187      21.45510      11.39349
  Shear Modulus (GPa)     =       0.31507       7.78329       4.04918
-------------------------------------------------------------------------------
  Velocity S-wave (km/s)  =       0.37254       1.85161       1.33552
  Velocity P-wave (km/s)  =       0.87848       3.74459       2.71972
-------------------------------------------------------------------------------
  Compressibility (1/GPa) =    0.75082247
-------------------------------------------------------------------------------
  Stress axis :                     x             y             z
-------------------------------------------------------------------------------
  Youngs Moduli (GPa)     =      36.11042      36.11042       1.36612
-------------------------------------------------------------------------------
  Poissons Ratio (x)      =                     0.62276       0.00071
  Poissons Ratio (y)      =       0.62276                     0.00071
  Poissons Ratio (z)      =       0.01868       0.01868
-------------------------------------------------------------------------------


  Piezoelectric Strain Matrix: (Units=C/m**2)

-------------------------------------------------------------------------------
  Indices      1         2         3         4         5         6    
-------------------------------------------------------------------------------
       x    -0.00000  -0.00000  -0.00000  -0.00000  -0.00000  -0.00000
       y     0.00000  -0.00000   0.00000   0.00000   0.00000  -0.00000
       z    -0.00000   0.00000  -0.00000   0.00000  -0.00000  -0.00000
-------------------------------------------------------------------------------


  Piezoelectric Stress Matrix: (Units=10**-11 C/N)

-------------------------------------------------------------------------------
  Indices      1         2         3         4         5         6    
-------------------------------------------------------------------------------
       x    -0.00000  -0.00000  -0.00000  -0.00000  -0.00000  -0.00000
       y     0.00000  -0.00000   0.00000   0.00000   0.00000  -0.00000
       z    -0.00000   0.00000  -0.00000   0.00000  -0.00000  -0.00000
-------------------------------------------------------------------------------


  Static dielectric constant tensor : 

-------------------------------------------------------------------------------
              x         y         z
-------------------------------------------------------------------------------
       x     2.69429  -0.00000   0.00000
       y    -0.00000   2.69429   0.00000
       z     0.00000   0.00000   2.22327
--------------------------------------------------------------------------------

  High frequency dielectric constant tensor : 

-------------------------------------------------------------------------------
              x         y         z
-------------------------------------------------------------------------------
       x     2.11991  -0.00000   0.00000
       y    -0.00000   2.11991   0.00000
       z     0.00000   0.00000   1.97865
-------------------------------------------------------------------------------

  Static refractive indices : 

-------------------------------------------------------------------------------
    1 =    1.49106      2 =    1.64143      3 =    1.64143
-------------------------------------------------------------------------------

  High frequency refractive indices : 

-------------------------------------------------------------------------------
    1 =    1.40664      2 =    1.45599      3 =    1.45599
-------------------------------------------------------------------------------


  Time to end of optimisation =       0.7121 seconds

********************************************************************************
*  Defect calculation for configuration   1 :                                  *
********************************************************************************



!!!!!!!!!!!!!!!!!!!!!!!!!!!!!!!!!!!!!!!!!!!!!!!!!!!!!!!!!!!!!!!!!!!!!!!!!!!!!!!!
!! WARNING : Ambiguous vacancy specifier used
!!!!!!!!!!!!!!!!!!!!!!!!!!!!!!!!!!!!!!!!!!!!!!!!!!!!!!!!!!!!!!!!!!!!!!!!!!!!!!!!



!!!!!!!!!!!!!!!!!!!!!!!!!!!!!!!!!!!!!!!!!!!!!!!!!!!!!!!!!!!!!!!!!!!!!!!!!!!!!!!!
!! WARNING : Ambiguous vacancy specifier used
!!!!!!!!!!!!!!!!!!!!!!!!!!!!!!!!!!!!!!!!!!!!!!!!!!!!!!!!!!!!!!!!!!!!!!!!!!!!!!!!

  Total number of defects =      2

  Total charge on defect  =   1.00

  Defect centre is at   0.0737   0.4439   0.7053  Frac

  Region 1 radius =  12.0000      Number of ions =    465

  Region 2 radius =  24.0000      Number of ions =   3198

  Region 2a mode = 4 : screened electrostatics due to region 1 
                       neglect correction to region 1 forces from 2a
                       region 2a displacements based on defects only

  Region 2a ions will only interact with defects in region 1

  Vacancies:

--------------------------------------------------------------------------------
    Specification type     Symbol/Number         x          y          z
--------------------------------------------------------------------------------
    Atom                    Cl    core
    Atom                    Cl    shel
--------------------------------------------------------------------------------


  Components of defect energy : 

--------------------------------------------------------------------------------
  Region 1 - region 1                   =     11.86721934 eV
  Region 1 - region 2a (unrelaxed)      =     -1.58311477 eV
  Region 1 - 2a (relaxed - correction)  =     -0.35433440 eV
  Region 1 (Total)                      =      9.92977017 eV
  Region 2a                             =      0.17719471 eV
  Region 2b                             =     -0.18241543 eV
--------------------------------------------------------------------------------
  Total defect energy                   =      9.92454945 eV
--------------------------------------------------------------------------------

  Largest displacement in region 2 =   0.0124 Angstroms


  Number of variables =     1395

  Maximum number of calculations  =        1000
  Maximum Hessian update interval =          10
  Maximum step size               =   1.0000000
  Maximum parameter tolerance     =   0.0000100
  Maximum function  tolerance     =   0.0000100
  Maximum gradient  tolerance     =   0.0010000

  Symmetry adapted optimisation

  Newton-Raphson optimiser to be used

  BFGS hessian update to be used

  Lower half triangular hessian to be used

  Start of defect optimisation :

  Cycle:      0 Defect Energy:   9.924549  Gnorm:     0.012593  CPU:    6.218
  ** Hessian calculated **
  Cycle:      1 Defect Energy:   8.823663  Gnorm:     0.009955  CPU:   27.471
  Cycle:      2 Defect Energy:   7.595079  Gnorm:     0.005832  CPU:   40.579
  Cycle:      3 Defect Energy:   6.817628  Gnorm:     0.000568  CPU:   56.523
  Cycle:      4 Defect Energy:   6.795784  Gnorm:     0.000474  CPU:   59.305
  Cycle:      5 Defect Energy:   6.782253  Gnorm:     0.000416  CPU:   61.973
  ** Hessian calculated **
  Cycle:      6 Defect Energy:   6.762005  Gnorm:     0.000296  CPU:   68.992
  Cycle:      7 Defect Energy:   6.751151  Gnorm:     0.000213  CPU:   71.468
  Cycle:      8 Defect Energy:   6.744950  Gnorm:     0.000153  CPU:   73.865
  Cycle:      9 Defect Energy:   6.741473  Gnorm:     0.000110  CPU:   76.230
  Cycle:     10 Defect Energy:   6.739560  Gnorm:     0.000078  CPU:   78.454
  Cycle:     11 Defect Energy:   6.738531  Gnorm:     0.000056  CPU:   84.292
  Cycle:     12 Defect Energy:   6.738003  Gnorm:     0.000039  CPU:   87.670
  Cycle:     13 Defect Energy:   6.737728  Gnorm:     0.000028  CPU:   90.598
  Cycle:     14 Defect Energy:   6.737577  Gnorm:     0.000020  CPU:   93.320
  Cycle:     15 Defect Energy:   6.737507  Gnorm:     0.000014  CPU:   95.991
  ** Hessian calculated **
  Cycle:     16 Defect Energy:   6.737478  Gnorm:     0.000010  CPU:  102.822
  Cycle:     17 Defect Energy:   6.737467  Gnorm:     0.000007  CPU:  105.333


  **** Optimisation achieved ****


  Final defect energy  =        6.73746972
  Final defect Gnorm   =        0.00000479

  Components of defect energy : 

--------------------------------------------------------------------------------
  Region 1 - region 1                   =      9.83782562 eV
  Region 1 - region 2a (unrelaxed)      =     -2.75661736 eV
  Region 1 - 2a (relaxed - correction)  =     -0.32226821 eV
  Region 1 (Total)                      =      6.75894005 eV
  Region 2a                             =      0.16110896 eV
  Region 2b                             =     -0.18257929 eV
--------------------------------------------------------------------------------
  Total defect energy                   =      6.73746972 eV
--------------------------------------------------------------------------------

  Largest displacement in region 2 =   0.0124 Angstroms

  Final coordinates of region 1 :

--------------------------------------------------------------------------------
   No.  Atomic        x           y           z          Radius      Charge
        Label       (Angs)      (Angs)      (Angs)       (Angs)       (e) 
--------------------------------------------------------------------------------
     1  Sc    c    -3.486747   -2.011491    6.151547    0.000000    3.000000
     2  Sc    c     0.338234    0.195512    6.155858    0.000000    3.000000
     3  Cl    c    -1.813522   -0.491623    5.260982    0.000000    1.485000
     4  Cl    c    -4.324911   -0.268624    7.712758    0.000000    1.485000
     5  Cl    c    -0.751926    1.793803    7.716108    0.000000    1.485000
     6  Cl    c    -3.805326   -3.681010    7.955370    0.000000    1.485000
     7  Cl    c     1.944579   -0.362694    7.958758    0.000000    1.485000
     8  Cl    c    -2.362035   -3.780672    4.825656    0.000000    1.485000
     9  Cl    c     1.307308   -1.663443    4.829714    0.000000    1.485000
    10  Cl    c    -1.066214   -5.629849    7.872997    0.000000    1.485000
    11  Cl    c     2.262395   -3.710268    7.874432    0.000000    1.485000
    12  Cl    c    -1.997131    0.178384   11.397485    0.000000    1.485000
    13  Cl    c     0.826773   -1.816875   11.386306    0.000000    1.485000
    14  Cl    c    -2.003709   -3.810092   11.402240    0.000000    1.485000
    15  Sc    c    -3.109247   -5.587035    6.436872    0.000000    3.000000
    16  Sc    c     3.246529   -1.918420    6.439553    0.000000    3.000000
    17  Cl    c    -5.414361   -1.571657    4.666229    0.000000    1.485000
    18  Cl    c     0.922977    2.084024    4.669914    0.000000    1.485000
    19  Cl    c     1.149309    1.636233   11.392586    0.000000    1.485000
    20  Sc    c     0.000175    0.000894   12.905003    0.000000    3.000000
    21  Cl    c     1.171957   -5.664287    4.914445    0.000000    1.485000
    22  Sc    c    -0.000949   -3.638753   12.900855    0.000000    3.000000
    23  Cl    c    -5.443335   -1.817655   11.400844    0.000000    1.485000
    24  Sc    c    -6.418191    0.059688    6.327619    0.000000    3.000000
    25  Sc    c     0.011024    3.769937    6.329987    0.000000    3.000000
    26  Cl    c     1.148293   -5.274122   11.391015    0.000000    1.485000
    27  Sc    c     0.052268   -7.339134    6.406588    0.000000    3.000000
    28  Sc    c     3.182674   -5.532330    6.405919    0.000000    3.000000
    29  Cl    c    -5.467218    1.863375    4.885164    0.000000    1.485000
    30  Cl    c    -2.025416    3.848475    4.885995    0.000000    1.485000
    31  Cl    c    -5.141650    1.634590   11.388398    0.000000    1.485000
    32  Cl    c    -4.274484    3.771013    7.881750    0.000000    1.485000
    33  Cl    c    -7.418381   -1.671868    7.827358    0.000000    1.485000
    34  Cl    c    -1.959499   -7.190218    4.911587    0.000000    1.485000
    35  Cl    c     4.059517   -3.714405    4.912446    0.000000    1.485000
    36  Cl    c     2.011340    3.772336    7.828779    0.000000    1.485000
    37  Cl    c    -4.295448   -7.152266    7.974234    0.000000    1.485000
    38  Cl    c     5.196434   -1.673143    7.975164    0.000000    1.485000
    39  Cl    c     2.032987   -7.155088    7.923476    0.000000    1.485000
    40  Cl    c    -5.164322   -5.602658    5.011545    0.000000    1.485000
    41  Cl    c     4.286124   -0.146673    5.012884    0.000000    1.485000
    42  Sc    c    -3.151843    1.823294   12.900412    0.000000    3.000000
    43  Cl    c    -1.156005   -1.988462    1.476405    0.000000    1.485000
    44  Cl    c    -2.296514    3.639116   11.401538    0.000000    1.485000
    45  Cl    c    -5.141298   -5.271114   11.392874    0.000000    1.485000
    46  Cl    c    -0.869255   -1.819349   14.385999    0.000000    1.485000
    47  Sc    c    -3.151625   -5.458607   12.906360    0.000000    3.000000
    48  Cl    c     4.293896    0.168557   11.397793    0.000000    1.485000
    49  Cl    c    -2.296359   -7.271486   11.404284    0.000000    1.485000
    50  Cl    c     4.292083   -3.801282   11.396847    0.000000    1.485000
    51  Cl    c    -7.125393    1.838538    7.926043    0.000000    1.485000
    52  Cl    c    -1.176348    5.273379    7.926609    0.000000    1.485000
    53  Cl    c    -3.981950   -0.003844    1.483677    0.000000    1.485000
    54  Cl    c    -1.144976    1.658314   14.388242    0.000000    1.485000
    55  Cl    c    -1.146351    1.986485    1.476778    0.000000    1.485000
    56  Cl    c    -4.291633   -3.455267    1.477961    0.000000    1.485000
    57  Sc    c    -6.297963    0.000994   12.900895    0.000000    3.000000
    58  Cl    c     1.990288   -3.448497    1.497000    0.000000    1.485000
    59  Cl    c    -7.434980   -5.597243    7.948269    0.000000    1.485000
    60  Cl    c    -4.283663    0.153551   14.382679    0.000000    1.485000
    61  Cl    c     5.418337    1.822530    7.948950    0.000000    1.485000
    62  Cl    c     2.288980   -0.000532    1.482127    0.000000    1.485000
    63  Sc    c    -6.297561   -3.636032   12.902336    0.000000    3.000000
    64  Sc    c     3.150100    1.818721   12.896953    0.000000    3.000000
    65  Cl    c     2.011045    0.154817   14.384712    0.000000    1.485000
    66  Cl    c    -0.856048   -5.445548    1.487439    0.000000    1.485000
    67  Cl    c    -0.856344   -9.111186    7.917095    0.000000    1.485000
    68  Cl    c     5.170955   -5.630993    7.917483    0.000000    1.485000
    69  Cl    c    -1.143476   -5.290987   14.392550    0.000000    1.485000
    70  Sc    c    -6.306276    3.671717    6.418881    0.000000    3.000000
    71  Sc    c    -3.172580    5.480328    6.418124    0.000000    3.000000
    72  Cl    c    -4.285853   -3.788293   14.387147    0.000000    1.485000
    73  Cl    c     2.011035   -3.784973   14.380507    0.000000    1.485000
    74  Sc    c     3.148919   -5.453135   12.895206    0.000000    3.000000
    75  Sc    c    -6.314416   -7.288198    6.481449    0.000000    3.000000
    76  Sc    c     6.322073    0.007298    6.480983    0.000000    3.000000
    77  Cl    c    -8.452892   -0.128324    4.898540    0.000000    1.485000
    78  Cl    c     1.190349    5.436988    4.898931    0.000000    1.485000
    79  Sc    c    -3.149358   -1.816939   -0.037208    0.000000    3.000000
    80  Cl    c    -8.294853    0.174479   11.399311    0.000000    1.485000
    81  Cl    c     3.990256    3.636732   11.392768    0.000000    1.485000
    82  Cl    c    -8.588936   -3.649363    4.941142    0.000000    1.485000
    83  Sc    c     0.003115   -3.637423   -0.018455    0.000000    3.000000
    84  Cl    c     4.308659    3.795967    4.941900    0.000000    1.485000
    85  Cl    c    -8.296227   -3.805182   11.403059    0.000000    1.485000
    86  Cl    c     0.892920   -9.161628    4.921187    0.000000    1.485000
    87  Cl    c     4.341573   -7.171653    4.921374    0.000000    1.485000
    88  Cl    c     1.141555    5.616336   11.407729    0.000000    1.485000
    89  Sc    c    -9.493058   -1.839755    6.417064    0.000000    3.000000
    90  Sc    c     3.193039    5.484403    6.416622    0.000000    3.000000
    91  Cl    c     3.994218   -7.270084   11.393420    0.000000    1.485000
    92  Cl    c    -5.163804    5.310760    4.911919    0.000000    1.485000
    93  Cl    c     1.139898   -9.248976   11.408118    0.000000    1.485000
    94  Cl    c    -4.292980    3.457163    1.491591    0.000000    1.485000
    95  Cl    c     1.990459    3.453275    1.495010    0.000000    1.485000
    96  Sc    c    -3.148900    1.822222   -0.022233    0.000000    3.000000
    97  Cl    c    -4.016584    3.636356   14.391540    0.000000    1.485000
    98  Cl    c    -7.153129   -1.816623   14.394400    0.000000    1.485000
    99  Sc    c    -3.149900    5.458355   12.905149    0.000000    3.000000
   100  Cl    c    -7.432168   -1.979105    1.482720    0.000000    1.485000
   101  Cl    c    -5.150091    5.621456   11.405770    0.000000    1.485000
   102  Cl    c     5.144832   -1.983288    1.491323    0.000000    1.485000
   103  Sc    c     3.151050   -1.818107   -0.015100    0.000000    3.000000
   104  Cl    c     7.139645   -1.816535   11.392266    0.000000    1.485000
   105  Cl    c     2.272058    3.629726   14.384881    0.000000    1.485000
   106  Cl    c    -4.016436   -7.273415   14.395049    0.000000    1.485000
   107  Cl    c    -5.426534   -9.079062    4.975486    0.000000    1.485000
   108  Cl    c     7.429626   -1.657407    4.975948    0.000000    1.485000
   109  Sc    c     6.296171   -0.001216   12.899966    0.000000    3.000000
   110  Cl    c    -4.288770   -7.427013    1.488487    0.000000    1.485000
   111  Cl    c     2.003618   -7.428605    1.489893    0.000000    1.485000
   112  Sc    c    -3.149163   -9.093160   12.904981    0.000000    3.000000
   113  Sc    c     6.295099   -3.634527   12.897221    0.000000    3.000000
   114  Sc    c    -9.445564   -5.461700    6.451215    0.000000    3.000000
   115  Sc    c     6.306024    3.632275    6.452719    0.000000    3.000000
   116  Cl    c     5.416575   -1.818083   14.382455    0.000000    1.485000
   117  Cl    c     2.273474   -7.263997   14.384800    0.000000    1.485000
   118  Cl    c    -5.151252   -9.254986   11.407815    0.000000    1.485000
   119  Cl    c    -7.436783    5.301388    7.939240    0.000000    1.485000
   120  Cl    c    -4.019026    7.273342    7.939430    0.000000    1.485000
   121  Cl    c   -10.285551   -3.644166    7.956578    0.000000    1.485000
   122  Cl    c     5.151440    5.269056    7.956979    0.000000    1.485000
   123  Cl    c    -8.321546    3.800060    4.945340    0.000000    1.485000
   124  Cl    c    -2.276083    7.290742    4.945891    0.000000    1.485000
   125  Cl    c    -1.997059    7.097969   11.402369    0.000000    1.485000
   126  Sc    c     0.002634  -10.951080    6.440502    0.000000    3.000000
   127  Cl    c    -8.286481   -7.100931    4.953378    0.000000    1.485000
   128  Sc    c     6.335831   -7.294704    6.441590    0.000000    3.000000
   129  Cl    c     7.145720    1.809513    4.953758    0.000000    1.485000
   130  Cl    c   -10.584581   -0.175289    7.933434    0.000000    1.485000
   131  Cl    c     2.297183    7.261328    7.933668    0.000000    1.485000
   132  Cl    c    -0.859529    5.449241    1.485943    0.000000    1.485000
   133  Sc    c     0.001577    3.641630   -0.019665    0.000000    3.000000
   134  Cl    c    -7.138037   -5.447281    1.496396    0.000000    1.485000
   135  Cl    c    -7.167636   -9.109041    7.964996    0.000000    1.485000
   136  Cl    c     8.325100   -0.163695    7.965318    0.000000    1.485000
   137  Cl    c    -2.283048    0.007135   -1.514922    0.000000    1.485000
   138  Cl    c    -1.997922   -3.474482   -1.515042    0.000000    1.485000
   139  Cl    c    -7.431144    1.662853   14.389579    0.000000    1.485000
   140  Sc    c    -6.299807   -3.636369   -0.017320    0.000000    3.000000
   141  Sc    c     3.147843    1.819300   -0.014654    0.000000    3.000000
   142  Cl    c     5.150510    1.654025   14.391150    0.000000    1.485000
   143  Cl    c    -7.437930    1.980106    1.489617    0.000000    1.485000
   144  Cl    c     1.140011   -1.971612   -1.501283    0.000000    1.485000
   145  Sc    c     3.146493    5.452833   12.903275    0.000000    3.000000
   146  Cl    c     5.142771    1.979159    1.492400    0.000000    1.485000
   147  Cl    c    -1.150187   -8.908399    1.501455    0.000000    1.485000
   148  Cl    c    -1.140847    5.604883   14.392691    0.000000    1.485000
   149  Cl    c    -8.583645    3.637526   11.410353    0.000000    1.485000
   150  Cl    c    -7.432053   -5.294981   14.393318    0.000000    1.485000
   151  Sc    c     0.000718   -7.271632   -0.005529    0.000000    3.000000
   152  Cl    c     5.148553   -5.286095   14.391160    0.000000    1.485000
   153  Cl    c    -1.997292  -10.733965   11.403826    0.000000    1.485000
   154  Cl    c     7.437620    1.653271   11.404591    0.000000    1.485000
   155  Cl    c    -2.007338  -11.076578    4.953041    0.000000    1.485000
   156  Cl    c     7.448627   -5.616998    4.953143    0.000000    1.485000
   157  Cl    c    -4.285091  -11.056494    7.940503    0.000000    1.485000
   158  Cl    c     8.570969   -3.634966    7.940436    0.000000    1.485000
   159  Cl    c     5.430546   -5.447322    1.492520    0.000000    1.485000
   160  Cl    c     2.002358  -11.071076    7.941284    0.000000    1.485000
   161  Cl    c     5.439977   -9.087381    7.941319    0.000000    1.485000
   162  Cl    c    -8.582782   -7.265223   11.408042    0.000000    1.485000
   163  Sc    c     3.146391   -9.086678   12.900882    0.000000    3.000000
   164  Cl    c     7.439418   -5.287569   11.403397    0.000000    1.485000
   165  Cl    c    -1.141031   -9.239218   14.393937    0.000000    1.485000
   166  Cl    c    -2.292166   -0.002001   17.861809    0.000000    1.485000
   167  Cl    c    -2.000030   -3.465015   17.863592    0.000000    1.485000
   168  Cl    c    -5.161449   -1.979410   -1.513634    0.000000    1.485000
   169  Cl    c     1.142742   -1.985373   17.862569    0.000000    1.485000
   170  Sc    c    -9.444555    1.820187   12.904410    0.000000    3.000000
   171  Sc    c     0.000488    7.269931   12.907830    0.000000    3.000000
   172  Cl    c     1.138208    1.973879   -1.501819    0.000000    1.485000
   173  Cl    c     0.867873   -5.456922   -1.500997    0.000000    1.485000
   174  Sc    c    -9.444643   -5.452478   12.907353    0.000000    3.000000
   175  Sc    c     0.001066  -10.903704   12.908383    0.000000    3.000000
   176  Cl    c   -11.506259   -1.676818    4.946679    0.000000    1.485000
   177  Cl    c     4.058407    7.310030    4.947038    0.000000    1.485000
   178  Sc    c    -6.295789  -10.912468    6.453236    0.000000    3.000000
   179  Sc    c     9.451631   -1.820708    6.454376    0.000000    3.000000
   180  Cl    c    -2.004000    3.476571   -1.509781    0.000000    1.485000
   181  Cl    c    -5.145870   -1.984640   17.860799    0.000000    1.485000
   182  Sc    c    -6.297946    3.636325   -0.005915    0.000000    3.000000
   183  Cl    c    -5.161753    1.974934   -1.500131    0.000000    1.485000
   184  Cl    c     4.005899    0.001117   -1.506338    0.000000    1.485000
   185  Cl    c     1.145268    1.983050   17.859893    0.000000    1.485000
   186  Cl    c   -10.575227    3.788340    7.942352    0.000000    1.485000
   187  Cl    c    -1.139198    9.236246    7.942370    0.000000    1.485000
   188  Cl    c     0.853438   -5.447908   17.860223    0.000000    1.485000
   189  Cl    c     4.290822    7.102059   11.405265    0.000000    1.485000
   190  Cl    c   -10.578524   -7.115443    7.947634    0.000000    1.485000
   191  Cl    c     8.305641    3.787046    7.947691    0.000000    1.485000
   192  Cl    c    -1.154693  -12.567966    7.957644    0.000000    1.485000
   193  Cl    c     8.315549   -7.100388    7.957579    0.000000    1.485000
   194  Sc    c    -6.294968   -7.270477   -0.005763    0.000000    3.000000
   195  Sc    c    -9.452095    5.458539    6.451768    0.000000    3.000000
   196  Sc    c    -3.147986    9.098216    6.452952    0.000000    3.000000
   197  Cl    c    -5.425217   -5.454299   -1.498681    0.000000    1.485000
   198  Cl    c     4.290460   -3.480822   -1.497168    0.000000    1.485000
   199  Sc    c    -3.147248   -9.087181   -0.004092    0.000000    3.000000
   200  Sc    c     6.298488   -3.635213   -0.004011    0.000000    3.000000
   201  Cl    c    -2.008020   -7.423820   -1.492792    0.000000    1.485000
   202  Cl    c   -11.722186   -1.816152   11.411859    0.000000    1.485000
   203  Cl    c     4.292576  -10.735752   11.404593    0.000000    1.485000
   204  Cl    c    -1.998671    3.460532   17.855983    0.000000    1.485000
   205  Cl    c    -7.140186    5.447889    1.504030    0.000000    1.485000
   206  Cl    c   -10.283762    0.000922    1.503000    0.000000    1.485000
   207  Cl    c     4.286186  -11.058358    4.964105    0.000000    1.485000
   208  Cl    c    -5.146224    1.985129   17.858264    0.000000    1.485000
   209  Cl    c    -4.292727    7.107342   14.400642    0.000000    1.485000
   210  Cl    c     2.001733    7.098753   14.403066    0.000000    1.485000
   211  Cl    c   -11.442352    1.648062   11.403698    0.000000    1.485000
   212  Cl    c     3.995214    0.000419   17.855488    0.000000    1.485000
   213  Sc    c    -3.151953  -12.727127    6.453203    0.000000    3.000000
   214  Sc    c     9.451263   -5.450724    6.451965    0.000000    3.000000
   215  Cl    c   -11.445840   -5.611865    4.955995    0.000000    1.485000
   216  Cl    c     7.435213    5.288996    4.956143    0.000000    1.485000
   217  Sc    c    -6.298170    7.271283   12.906851    0.000000    3.000000
   218  Sc    c    -9.444875   -1.815219   -0.005856    0.000000    3.000000
   219  Cl    c     0.855246    9.082699   11.406530    0.000000    1.485000
   220  Cl    c   -11.440418   -5.280828   11.403737    0.000000    1.485000
   221  Cl    c   -11.713713    1.814465    4.965987    0.000000    1.485000
   222  Cl    c     1.139417    9.234236    4.966031    0.000000    1.485000
   223  Cl    c    -5.435779   -5.449424   17.860212    0.000000    1.485000
   224  Cl    c     4.292783   -3.464666   17.858426    0.000000    1.485000
   225  Cl    c    -4.285497    7.422974    1.492057    0.000000    1.485000
   226  Cl    c     2.002261    7.426418    1.493148    0.000000    1.485000
   227  Cl    c   -10.580531   -3.466715    1.496069    0.000000    1.485000
   228  Cl    c     1.152616  -12.596522    4.949962    0.000000    1.485000
   229  Cl    c     7.185724   -9.112452    4.949888    0.000000    1.485000
   230  Cl    c    -7.440015   -8.908637    1.502629    0.000000    1.485000
   231  Cl    c     8.289400   -3.458652    1.504519    0.000000    1.485000
   232  Cl    c    -2.002958   -7.431709   17.860938    0.000000    1.485000
   233  Cl    c     5.140976   -8.904715    1.505705    0.000000    1.485000
   234  Cl    c    -7.432027    5.605937   14.395338    0.000000    1.485000
   235  Cl    c   -10.575721    0.155856   14.393632    0.000000    1.485000
   236  Cl    c     5.427063    5.447930    1.493670    0.000000    1.485000
   237  Cl    c     5.152064    5.603847   14.393097    0.000000    1.485000
   238  Cl    c    -3.999937  -10.898441    1.499956    0.000000    1.485000
   239  Cl    c     8.296359    0.158264   14.395188    0.000000    1.485000
   240  Sc    c   -12.602109    0.004041    6.452281    0.000000    3.000000
   241  Cl    c    -4.291733  -10.740857   14.402507    0.000000    1.485000
   242  Sc    c     3.150741    9.098943    6.453486    0.000000    3.000000
   243  Sc    c    -3.147233   -1.817228   19.363912    0.000000    3.000000
   244  Cl    c     2.002956  -10.731594   14.403270    0.000000    1.485000
   245  Cl    c   -10.577767   -3.788226   14.395187    0.000000    1.485000
   246  Sc    c     3.149739   -9.087306   -0.004109    0.000000    3.000000
   247  Cl    c     8.295098   -3.789984   14.393719    0.000000    1.485000
   248  Sc    c     0.000198   -3.634401   19.365095    0.000000    3.000000
   249  Sc    c    -6.297196  -10.905705   12.909207    0.000000    3.000000
   250  Cl    c     8.570345   -0.000567    1.491587    0.000000    1.485000
   251  Cl    c     7.432194    5.606685   11.413748    0.000000    1.485000
   252  Cl    c     2.286297  -10.898170    1.495308    0.000000    1.485000
   253  Cl    c    -8.295812    7.096298   11.405100    0.000000    1.485000
   254  Cl    c     0.856868  -12.715868   11.407093    0.000000    1.485000
   255  Cl    c    -7.428816   -9.232784   14.391412    0.000000    1.485000
   256  Cl    c     5.151670   -9.235867   14.392160    0.000000    1.485000
   257  Cl    c     0.868352    5.460512   -1.501518    0.000000    1.485000
   258  Cl    c    -8.305974   -3.470681   -1.502567    0.000000    1.485000
   259  Sc    c    -9.445651    1.818948   -0.005270    0.000000    3.000000
   260  Cl    c    -8.569912    7.266529    4.961251    0.000000    1.485000
   261  Cl    c    -5.154111    9.237562    4.961345    0.000000    1.485000
   262  Sc    c     0.000136    7.275052   -0.005359    0.000000    3.000000
   263  Sc    c    -9.444324    5.453768   12.910134    0.000000    3.000000
   264  Sc    c     3.154509  -12.727041    6.453105    0.000000    3.000000
   265  Sc    c     6.297907  -10.912303    6.451919    0.000000    3.000000
   266  Cl    c     4.288624    3.480165   -1.496988    0.000000    1.485000
   267  Cl    s    -1.761925   -0.581269    5.446645    0.000000   -2.485000
   268  Cl    s    -3.717135   -3.663240    7.680116    0.000000   -2.485000
   269  Cl    s     1.885128   -0.430314    7.683531    0.000000   -2.485000
   270  Cl    s    -4.391760   -0.402579    7.475640    0.000000   -2.485000
   271  Cl    s    -0.602414    1.784704    7.478911    0.000000   -2.485000
   272  Cl    s    -2.516874   -3.746209    5.064447    0.000000   -2.485000
   273  Cl    s     1.354848   -1.511838    5.068398    0.000000   -2.485000
   274  Cl    s    -1.148750   -5.748319    7.643567    0.000000   -2.485000
   275  Cl    s     2.406224   -3.697537    7.644968    0.000000   -2.485000
   276  Cl    s     0.694906   -1.815402   11.609757    0.000000   -2.485000
   277  Cl    s    -1.929808    0.290190   11.616634    0.000000   -2.485000
   278  Cl    s    -1.935879   -3.922097   11.624088    0.000000   -2.485000
   279  Cl    s    -5.299360   -1.495113    4.923709    0.000000   -2.485000
   280  Cl    s     0.798805    2.022486    4.927445    0.000000   -2.485000
   281  Cl    s     1.213080    1.519083   11.618555    0.000000   -2.485000
   282  Cl    s     1.239011   -5.780084    5.147774    0.000000   -2.485000
   283  Cl    s     1.212054   -5.155975   11.620024    0.000000   -2.485000
   284  Cl    s    -5.574425   -1.817140   11.625711    0.000000   -2.485000
   285  Cl    s    -1.899520   -7.063447    5.152660    0.000000   -2.485000
   286  Cl    s     3.919826   -3.703411    5.153513    0.000000   -2.485000
   287  Cl    s     1.964207   -7.036137    7.682138    0.000000   -2.485000
   288  Cl    s    -5.603594    1.848712    5.119341    0.000000   -2.485000
   289  Cl    s    -1.944883    3.959437    5.120190    0.000000   -2.485000
   290  Cl    s    -4.350512   -7.027493    7.733480    0.000000   -2.485000
   291  Cl    s     5.115441   -1.563296    7.734478    0.000000   -2.485000
   292  Cl    s    -5.073153    1.519802   11.617391    0.000000   -2.485000
   293  Cl    s    -5.082760   -5.719260    5.240918    0.000000   -2.485000
   294  Cl    s     4.346785   -0.275439    5.242241    0.000000   -2.485000
   295  Cl    s    -0.730517   -1.818048   14.150238    0.000000   -2.485000
   296  Cl    s    -7.488159   -1.545377    7.596500    0.000000   -2.485000
   297  Cl    s     1.936346    3.895622    7.597893    0.000000   -2.485000
   298  Cl    s    -4.345366    3.893493    7.651769    0.000000   -2.485000
   299  Cl    s    -5.073441   -5.155412   11.621703    0.000000   -2.485000
   300  Cl    s    -2.430174    3.634630   11.628874    0.000000   -2.485000
   301  Cl    s    -1.222601   -2.101151    1.256566    0.000000   -2.485000
   302  Cl    s    -6.998597    1.831185    7.677667    0.000000   -2.485000
   303  Cl    s    -1.233090    5.159646    7.678273    0.000000   -2.485000
   304  Cl    s    -2.431020   -7.267344   11.632587    0.000000   -2.485000
   305  Cl    s     4.357356    0.285041   11.624900    0.000000   -2.485000
   306  Cl    s    -1.212870    1.537517   14.151991    0.000000   -2.485000
   307  Cl    s     4.356851   -3.917127   11.624687    0.000000   -2.485000
   308  Cl    s    -1.211948   -5.170840   14.156305    0.000000   -2.485000
   309  Cl    s     1.938313    0.273642   14.149508    0.000000   -2.485000
   310  Cl    s    -4.352233    0.274545   14.148328    0.000000   -2.485000
   311  Cl    s    -3.848838   -0.005333    1.260357    0.000000   -2.485000
   312  Cl    s     1.938296   -3.903972   14.146226    0.000000   -2.485000
   313  Cl    s    -4.354352   -3.908815   14.152981    0.000000   -2.485000
   314  Cl    s    -0.717759   -9.105850    7.682503    0.000000   -2.485000
   315  Cl    s     5.097432   -5.748534    7.682978    0.000000   -2.485000
   316  Cl    s     1.922283   -3.333486    1.267850    0.000000   -2.485000
   317  Cl    s    -7.497446   -5.719149    7.716480    0.000000   -2.485000
   318  Cl    s    -4.356340   -3.336932    1.254847    0.000000   -2.485000
   319  Cl    s     5.555107    1.816071    7.717171    0.000000   -2.485000
   320  Cl    s    -1.213709    2.098853    1.255022    0.000000   -2.485000
   321  Cl    s    -0.721904   -5.441980    1.260437    0.000000   -2.485000
   322  Cl    s    -8.358130   -0.244842    5.131741    0.000000   -2.485000
   323  Cl    s     1.244259    5.297112    5.132133    0.000000   -2.485000
   324  Cl    s     2.419864   -0.000174    1.259651    0.000000   -2.485000
   325  Cl    s     0.754195   -9.147934    5.157478    0.000000   -2.485000
   326  Cl    s     4.398762   -7.044464    5.157776    0.000000   -2.485000
   327  Cl    s     3.855817    3.633377   11.623662    0.000000   -2.485000
   328  Cl    s    -8.224020    0.289048   11.628844    0.000000   -2.485000
   329  Cl    s    -8.722497   -3.644547    5.173714    0.000000   -2.485000
   330  Cl    s     4.370978    3.914249    5.174428    0.000000   -2.485000
   331  Cl    s    -5.093954    5.190053    5.150623    0.000000   -2.485000
   332  Cl    s    -8.225089   -3.919742   11.632972    0.000000   -2.485000
   333  Cl    s     3.859306   -7.266619   11.624881    0.000000   -2.485000
   334  Cl    s    -7.015624   -1.816221   14.158467    0.000000   -2.485000
   335  Cl    s     1.209060    5.731480   11.635971    0.000000   -2.485000
   336  Cl    s    -3.878099    3.633704   14.156341    0.000000   -2.485000
   337  Cl    s     1.922668    3.336787    1.266466    0.000000   -2.485000
   338  Cl    s    -3.878153   -7.269549   14.160218    0.000000   -2.485000
   339  Cl    s    -4.357720    3.339094    1.261750    0.000000   -2.485000
   340  Cl    s     1.208237   -9.364416   11.637731    0.000000   -2.485000
   341  Cl    s     2.410449    3.627655   14.151248    0.000000   -2.485000
   342  Cl    s     7.004372   -1.816068   11.623577    0.000000   -2.485000
   343  Cl    s    -5.563312   -9.074465    5.208599    0.000000   -2.485000
   344  Cl    s     7.493685   -1.536486    5.209111    0.000000   -2.485000
   345  Cl    s     5.074146   -2.098912    1.262062    0.000000   -2.485000
   346  Cl    s    -5.080426    5.736107   11.635267    0.000000   -2.485000
   347  Cl    s     2.411435   -7.261211   14.151480    0.000000   -2.485000
   348  Cl    s    -7.496570   -2.096805    1.256616    0.000000   -2.485000
   349  Cl    s     5.554880   -1.817190   14.149372    0.000000   -2.485000
   350  Cl    s   -10.152017   -3.642195    7.715852    0.000000   -2.485000
   351  Cl    s     5.083236    5.154187    7.716338    0.000000   -2.485000
   352  Cl    s    -8.218013   -6.983689    5.191993    0.000000   -2.485000
   353  Cl    s     7.009941    1.808515    5.192367    0.000000   -2.485000
   354  Cl    s    -7.499692    5.179043    7.702476    0.000000   -2.485000
   355  Cl    s    -3.881602    7.267100    7.702788    0.000000   -2.485000
   356  Cl    s    -1.931346   -3.353098   -1.278886    0.000000   -2.485000
   357  Cl    s    -8.244004    3.915752    5.179418    0.000000   -2.485000
   358  Cl    s    -2.415070    7.280994    5.179905    0.000000   -2.485000
   359  Cl    s    -2.421317    0.004662   -1.279379    0.000000   -2.485000
   360  Cl    s     5.079957    1.535637   14.155594    0.000000   -2.485000
   361  Cl    s     1.932821   -7.543664    1.260941    0.000000   -2.485000
   362  Cl    s    -1.931062    6.979639   11.633535    0.000000   -2.485000
   363  Cl    s    -4.356360   -7.542928    1.260872    0.000000   -2.485000
   364  Cl    s    -5.081754   -9.369396   11.637469    0.000000   -2.485000
   365  Cl    s    -7.497746    1.541500   14.155562    0.000000   -2.485000
   366  Cl    s     1.207744   -2.092134   -1.266807    0.000000   -2.485000
   367  Cl    s    -7.028705   -9.098823    7.729249    0.000000   -2.485000
   368  Cl    s     8.247063   -0.279118    7.729659    0.000000   -2.485000
   369  Cl    s     5.078626   -5.167773   14.155564    0.000000   -2.485000
   370  Cl    s   -10.650362   -0.295030    7.699014    0.000000   -2.485000
   371  Cl    s     2.433853    7.258773    7.699272    0.000000   -2.485000
   372  Cl    s    -7.498894   -5.173792   14.158966    0.000000   -2.485000
   373  Cl    s    -7.003525   -5.444873    1.265073    0.000000   -2.485000
   374  Cl    s    -1.210772    5.723573   14.159283    0.000000   -2.485000
   375  Cl    s    -0.723944    5.446340    1.257433    0.000000   -2.485000
   376  Cl    s    -1.216336   -8.790307    1.269706    0.000000   -2.485000
   377  Cl    s    -1.931627  -10.615202   11.635898    0.000000   -2.485000
   378  Cl    s     5.072989    2.095488    1.262536    0.000000   -2.485000
   379  Cl    s    -7.503081    2.096963    1.261663    0.000000   -2.485000
   380  Cl    s    -8.717856    3.634865   11.639895    0.000000   -2.485000
   381  Cl    s     7.502830    1.534422   11.634673    0.000000   -2.485000
   382  Cl    s    -1.937354  -11.193383    5.186048    0.000000   -2.485000
   383  Cl    s     7.515138   -5.735862    5.186121    0.000000   -2.485000
   384  Cl    s    -1.210819   -9.357700   14.160794    0.000000   -2.485000
   385  Cl    s    -5.087945   -2.096955   -1.278171    0.000000   -2.485000
   386  Cl    s     1.932649  -11.189338    7.707669    0.000000   -2.485000
   387  Cl    s     5.577234   -9.085693    7.707799    0.000000   -2.485000
   388  Cl    s    -4.355040  -11.173809    7.708748    0.000000   -2.485000
   389  Cl    s     8.707502   -3.632636    7.708814    0.000000   -2.485000
   390  Cl    s     7.504106   -5.168295   11.634479    0.000000   -2.485000
   391  Cl    s     0.729167   -5.452479   -1.265742    0.000000   -2.485000
   392  Cl    s    -8.717129   -7.263930   11.638180    0.000000   -2.485000
   393  Cl    s     1.206399    2.093749   -1.267630    0.000000   -2.485000
   394  Cl    s     5.565414   -5.445327    1.262886    0.000000   -2.485000
   395  Cl    s    -1.932924   -3.348095   18.093666    0.000000   -2.485000
   396  Cl    s    -2.426924   -0.001632   18.091799    0.000000   -2.485000
   397  Cl    s    -1.935936    3.355750   -1.273779    0.000000   -2.485000
   398  Cl    s     1.210559   -2.101919   18.092479    0.000000   -2.485000
   399  Cl    s   -11.424842   -1.558930    5.180661    0.000000   -2.485000
   400  Cl    s     3.915598    7.298110    5.181033    0.000000   -2.485000
   401  Cl    s     3.867732    0.000434   -1.270146    0.000000   -2.485000
   402  Cl    s    -5.088521    2.092739   -1.265414    0.000000   -2.485000
   403  Cl    s    -1.219828  -12.448158    7.719932    0.000000   -2.485000
   404  Cl    s     8.243958   -6.984232    7.719930    0.000000   -2.485000
   405  Cl    s     4.355542   -3.358662   -1.262648    0.000000   -2.485000
   406  Cl    s    -5.562894   -5.450810   -1.264505    0.000000   -2.485000
   407  Cl    s     4.356468    6.982671   11.636374    0.000000   -2.485000
   408  Cl    s   -10.642486   -6.993037    7.712954    0.000000   -2.485000
   409  Cl    s     8.231195    3.903405    7.713051    0.000000   -2.485000
   410  Cl    s    -1.937869   -7.541558   -1.258980    0.000000   -2.485000
   411  Cl    s    -5.078596   -2.101397   18.091158    0.000000   -2.485000
   412  Cl    s   -10.641585    3.907644    7.710054    0.000000   -2.485000
   413  Cl    s    -1.209687    9.353145    7.710125    0.000000   -2.485000
   414  Cl    s     0.718539   -5.448077   18.090807    0.000000   -2.485000
   415  Cl    s     1.933155    6.979821   14.167019    0.000000   -2.485000
   416  Cl    s     1.212349    2.099987   18.089826    0.000000   -2.485000
   417  Cl    s    -4.359019    6.986686   14.165288    0.000000   -2.485000
   418  Cl    s     4.358034  -10.616200   11.636549    0.000000   -2.485000
   419  Cl    s   -10.149015    0.000512    1.270563    0.000000   -2.485000
   420  Cl    s    -7.005132    5.445566    1.271564    0.000000   -2.485000
   421  Cl    s   -11.372097    1.531328   11.635698    0.000000   -2.485000
   422  Cl    s   -11.372541   -5.728662    5.190845    0.000000   -2.485000
   423  Cl    s   -11.857005   -1.816082   11.641764    0.000000   -2.485000
   424  Cl    s     7.500078    5.167304    5.191014    0.000000   -2.485000
   425  Cl    s     4.354692  -11.176619    5.195389    0.000000   -2.485000
   426  Cl    s    -1.931369    3.343891   18.086859    0.000000   -2.485000
   427  Cl    s     1.216414  -12.471642    5.184963    0.000000   -2.485000
   428  Cl    s     7.045682   -9.105593    5.184886    0.000000   -2.485000
   429  Cl    s     1.934252  -10.613014   14.167576    0.000000   -2.485000
   430  Cl    s    -4.358564  -10.620591   14.167264    0.000000   -2.485000
   431  Cl    s   -11.370757   -5.163696   11.635964    0.000000   -2.485000
   432  Cl    s     8.224808    0.276318   14.160096    0.000000   -2.485000
   433  Cl    s     3.860572    0.000307   18.086649    0.000000   -2.485000
   434  Cl    s     0.719670    9.079773   11.638399    0.000000   -2.485000
   435  Cl    s     5.080398    5.721675   14.159177    0.000000   -2.485000
   436  Cl    s     8.224027   -3.908228   14.159038    0.000000   -2.485000
   437  Cl    s   -10.642639    0.276150   14.159996    0.000000   -2.485000
   438  Cl    s    -5.078387    2.101509   18.088647    0.000000   -2.485000
   439  Cl    s   -11.850281    1.813102    5.197493    0.000000   -2.485000
   440  Cl    s     1.208567    9.352040    5.197517    0.000000   -2.485000
   441  Cl    s    -7.500433    5.724988   14.162306    0.000000   -2.485000
   442  Cl    s     5.073343   -8.788071    1.272334    0.000000   -2.485000
   443  Cl    s   -10.644288   -3.908500   14.161467    0.000000   -2.485000
   444  Cl    s     8.219701   -3.342784    1.271490    0.000000   -2.485000
   445  Cl    s    -7.505074   -8.790458    1.270224    0.000000   -2.485000
   446  Cl    s    -8.233333   -3.352452   -1.266839    0.000000   -2.485000
   447  Cl    s   -10.645812   -3.348130    1.265287    0.000000   -2.485000
   448  Cl    s    -3.864770  -10.895168    1.267805    0.000000   -2.485000
   449  Cl    s     0.729636    5.455217   -1.266384    0.000000   -2.485000
   450  Cl    s     4.359124   -3.347385   18.089123    0.000000   -2.485000
   451  Cl    s     1.932755    7.542411    1.263199    0.000000   -2.485000
   452  Cl    s    -8.226877    6.979003   11.637453    0.000000   -2.485000
   453  Cl    s    -5.570716   -5.448918   18.090225    0.000000   -2.485000
   454  Cl    s    -4.353589    7.539460    1.262803    0.000000   -2.485000
   455  Cl    s     5.080641   -9.353986   14.158714    0.000000   -2.485000
   456  Cl    s     4.353605    3.357628   -1.261725    0.000000   -2.485000
   457  Cl    s     5.562128    5.445561    1.264027    0.000000   -2.485000
   458  Cl    s    -7.497390   -9.352497   14.158965    0.000000   -2.485000
   459  Cl    s    -1.934904   -7.548198   18.090934    0.000000   -2.485000
   460  Cl    s     0.720946  -12.713337   11.639344    0.000000   -2.485000
   461  Cl    s     2.421628  -10.895464    1.264031    0.000000   -2.485000
   462  Cl    s     7.498593    5.724494   11.643464    0.000000   -2.485000
   463  Cl    s    -8.706620    7.262819    5.193972    0.000000   -2.485000
   464  Cl    s    -5.082838    9.354346    5.194082    0.000000   -2.485000
   465  Cl    s     8.705380   -0.000452    1.262342    0.000000   -2.485000
--------------------------------------------------------------------------------

  Final coordinates of symmetry reduced region 1 (relative to defect centre):

--------------------------------------------------------------------------------
   No.  Atomic        x           y           z          Charge
        Label       (Angs)      (Angs)      (Angs)         (e) 
--------------------------------------------------------------------------------
     1  Sc    c    -2.321794   -0.389073   -1.739688    3.000000
     2  Sc    c     1.503186    1.817929   -1.735377    3.000000
     3  Cl    c    -0.648570    1.130794   -2.630253    1.485000
     4  Cl    c    -3.159959    1.353793   -0.178477    1.485000
     5  Cl    c     0.413026    3.416220   -0.175127    1.485000
     6  Cl    c    -2.640374   -2.058593    0.064135    1.485000
     7  Cl    c     3.109531    1.259724    0.067523    1.485000
     8  Cl    c    -1.197083   -2.158254   -3.065579    1.485000
     9  Cl    c     2.472260   -0.041026   -3.061521    1.485000
    10  Cl    c     0.098738   -4.007432   -0.018238    1.485000
    11  Cl    c     3.427347   -2.087851   -0.016803    1.485000
    12  Cl    c    -0.832179    1.800801    3.506250    1.485000
    13  Cl    c     1.991725   -0.194458    3.495071    1.485000
    14  Cl    c    -0.838757   -2.187674    3.511005    1.485000
    15  Sc    c    -1.944295   -3.964618   -1.454363    3.000000
    16  Sc    c     4.411481   -0.296002   -1.451682    3.000000
    17  Cl    c    -4.249409    0.050760   -3.225006    1.485000
    18  Cl    c     2.087929    3.706441   -3.221321    1.485000
    19  Cl    c     2.314261    3.258651    3.501351    1.485000
    20  Sc    c     1.165127    1.623311    5.013768    3.000000
    21  Cl    c     2.336909   -4.041869   -2.976790    1.485000
    22  Sc    c     1.164003   -2.016336    5.009620    3.000000
    23  Cl    c    -4.278382   -0.195238    3.509609    1.485000
    24  Sc    c    -5.253238    1.682105   -1.563616    3.000000
    25  Sc    c     1.175976    5.392354   -1.561248    3.000000
    26  Cl    c     2.313245   -3.651705    3.499780    1.485000
    27  Sc    c     1.217221   -5.716717   -1.484647    3.000000
    28  Sc    c     4.347626   -3.909913   -1.485316    3.000000
    29  Cl    c    -4.302266    3.485792   -3.006071    1.485000
    30  Cl    c    -0.860464    5.470892   -3.005240    1.485000
    31  Cl    c    -3.976698    3.257007    3.497163    1.485000
    32  Cl    c    -3.109532    5.393430   -0.009485    1.485000
    33  Cl    c    -6.253429   -0.049450   -0.063877    1.485000
    34  Cl    c    -0.794547   -5.567801   -2.979648    1.485000
    35  Cl    c     5.224469   -2.091987   -2.978789    1.485000
    36  Cl    c     3.176293    5.394753   -0.062456    1.485000
    37  Cl    c    -3.130496   -5.529849    0.082999    1.485000
    38  Cl    c     6.361386   -0.050726    0.083929    1.485000
    39  Cl    c     3.197940   -5.532671    0.032241    1.485000
    40  Cl    c    -3.999370   -3.980240   -2.879690    1.485000
    41  Cl    c     5.451076    1.475744   -2.878351    1.485000
    42  Sc    c    -1.986891    3.445711    5.009177    3.000000
    43  Cl    c     0.008948   -0.366045   -6.414830    1.485000
    44  Cl    c    -1.131562    5.261533    3.510303    1.485000
    45  Cl    c    -3.976346   -3.648697    3.501639    1.485000
    46  Cl    c     0.295697   -0.196932    6.494764    1.485000
    47  Sc    c    -1.986673   -3.836190    5.015125    3.000000
    48  Cl    c     5.458848    1.790974    3.506557    1.485000
    49  Cl    c    -1.131407   -5.649069    3.513049    1.485000
    50  Cl    c     5.457035   -2.178865    3.505612    1.485000
    51  Cl    c    -5.960441    3.460955    0.034808    1.485000
    52  Cl    c    -0.011395    6.895797    0.035374    1.485000
    53  Cl    c    -2.816997    1.618574   -6.407558    1.485000
    54  Cl    c     0.019976    3.280731    6.497007    1.485000
    55  Cl    c     0.018601    3.608902   -6.414457    1.485000
    56  Cl    c    -3.126680   -1.832849   -6.413274    1.485000
    57  Sc    c    -5.133010    1.623411    5.009660    3.000000
    58  Cl    c     3.155240   -1.826080   -6.394235    1.485000
    59  Cl    c    -6.270027   -3.974825    0.057034    1.485000
    60  Cl    c    -3.118711    1.775969    6.491444    1.485000
    61  Cl    c     6.583290    3.444947    0.057715    1.485000
    62  Cl    c     3.453932    1.621885   -6.409108    1.485000
    63  Sc    c    -5.132608   -2.013615    5.011101    3.000000
    64  Sc    c     4.315053    3.441138    5.005718    3.000000
    65  Cl    c     3.175997    1.777234    6.493477    1.485000
    66  Cl    c     0.308905   -3.823131   -6.403796    1.485000
    67  Cl    c     0.308608   -7.488769    0.025860    1.485000
    68  Cl    c     6.335907   -4.008576    0.026248    1.485000
    69  Cl    c     0.021476   -3.668570    6.501315    1.485000
    70  Sc    c    -5.141323    5.294135   -1.472354    3.000000
    71  Sc    c    -2.007628    7.102745   -1.473111    3.000000
    72  Cl    c    -3.120901   -2.165876    6.495912    1.485000
    73  Cl    c     3.175988   -2.162556    6.489272    1.485000
    74  Sc    c     4.313871   -3.830718    5.003971    3.000000
    75  Sc    c    -5.149464   -5.665781   -1.409786    3.000000
    76  Sc    c     7.487025    1.629715   -1.410253    3.000000
    77  Cl    c    -7.287939    1.494094   -2.992695    1.485000
    78  Cl    c     2.355302    7.059405   -2.992304    1.485000
    79  Sc    c    -1.984406   -0.194522   -7.928443    3.000000
    80  Cl    c    -7.129901    1.796896    3.508076    1.485000
    81  Cl    c     5.155209    5.259150    3.501533    1.485000
    82  Cl    c    -7.423984   -2.026946   -2.950093    1.485000
    83  Sc    c     1.168067   -2.015006   -7.909690    3.000000
    84  Cl    c     5.473611    5.418385   -2.949335    1.485000
    85  Cl    c    -7.131274   -2.182765    3.511824    1.485000
    86  Cl    c     2.057873   -7.539211   -2.970049    1.485000
    87  Cl    c     5.506525   -5.549236   -2.969861    1.485000
    88  Cl    c     2.306508    7.238753    3.516494    1.485000
    89  Sc    c    -8.328106   -0.217338   -1.474171    3.000000
    90  Sc    c     4.357991    7.106820   -1.474613    3.000000
    91  Cl    c     5.159170   -5.647667    3.502185    1.485000
    92  Cl    c    -3.998852    6.933177   -2.979316    1.485000
    93  Cl    c     2.304851   -7.626559    3.516883    1.485000
    94  Cl    c    -3.128028    5.079580   -6.399644    1.485000
    95  Cl    c     3.155411    5.075692   -6.396225    1.485000
    96  Sc    c    -1.983948    3.444639   -7.913468    3.000000
    97  Cl    c    -2.851632    5.258774    6.500305    1.485000
    98  Cl    c    -5.988177   -0.194206    6.503165    1.485000
    99  Sc    c    -1.984947    7.080772    5.013914    3.000000
   100  Cl    c    -6.267216   -0.356688   -6.408515    1.485000
   101  Cl    c    -3.985139    7.243873    3.514535    1.485000
   102  Cl    c     6.309784   -0.360871   -6.399912    1.485000
   103  Sc    c     4.316003   -0.195690   -7.906335    3.000000
   104  Cl    c     8.304597   -0.194118    3.501031    1.485000
   105  Cl    c     3.437010    5.252143    6.493646    1.485000
   106  Cl    c    -2.851483   -5.650998    6.503814    1.485000
   107  Cl    c    -4.261582   -7.456645   -2.915749    1.485000
   108  Cl    c     8.594578   -0.034990   -2.915287    1.485000
   109  Sc    c     7.461124    1.621201    5.008731    3.000000
   110  Cl    c    -3.123818   -5.804596   -6.402748    1.485000
   111  Cl    c     3.168571   -5.806188   -6.401342    1.485000
   112  Sc    c    -1.984211   -7.470743    5.013746    3.000000
   113  Sc    c     7.460052   -2.012110    5.005986    3.000000
   114  Sc    c    -8.280612   -3.839283   -1.440020    3.000000
   115  Sc    c     7.470976    5.254692   -1.438516    3.000000
   116  Cl    c     6.581528   -0.195666    6.491220    1.485000
   117  Cl    c     3.438426   -5.641579    6.493565    1.485000
   118  Cl    c    -3.986299   -7.632569    3.516580    1.485000
   119  Cl    c    -6.271831    6.923806    0.048005    1.485000
   120  Cl    c    -2.854074    8.895759    0.048195    1.485000
   121  Cl    c    -9.120599   -2.021749    0.065343    1.485000
   122  Cl    c     6.316392    6.891473    0.065744    1.485000
   123  Cl    c    -7.156594    5.422478   -2.945895    1.485000
   124  Cl    c    -1.111130    8.913159   -2.945344    1.485000
   125  Cl    c    -0.832107    8.720386    3.511134    1.485000
   126  Sc    c     1.167587   -9.328663   -1.450733    3.000000
   127  Cl    c    -7.121529   -5.478514   -2.937857    1.485000
   128  Sc    c     7.500784   -5.672286   -1.449645    3.000000
   129  Cl    c     8.310673    3.431930   -2.937477    1.485000
   130  Cl    c    -9.419629    1.447128    0.042199    1.485000
   131  Cl    c     3.462135    8.883745    0.042433    1.485000
   132  Cl    c     0.305423    7.071658   -6.405292    1.485000
   133  Sc    c     1.166529    5.264047   -7.910900    3.000000
   134  Cl    c    -5.973085   -3.824864   -6.394839    1.485000
   135  Cl    c    -6.002684   -7.486623    0.073761    1.485000
   136  Cl    c     9.490052    1.458722    0.074083    1.485000
   137  Cl    c    -1.118095    1.629552   -9.406157    1.485000
   138  Cl    c    -0.832970   -1.852065   -9.406277    1.485000
   139  Cl    c    -6.266192    3.285271    6.498344    1.485000
   140  Sc    c    -5.134855   -2.013952   -7.908556    3.000000
   141  Sc    c     4.312796    3.441718   -7.905889    3.000000
   142  Cl    c     6.315462    3.276442    6.499915    1.485000
   143  Cl    c    -6.272978    3.602523   -6.401618    1.485000
   144  Cl    c     2.304964   -0.349195   -9.392518    1.485000
   145  Sc    c     4.311445    7.075250    5.012040    3.000000
   146  Cl    c     6.307723    3.601576   -6.398835    1.485000
   147  Cl    c     0.014765   -7.285981   -6.389780    1.485000
   148  Cl    c     0.024105    7.227300    6.501456    1.485000
   149  Cl    c    -7.418693    5.259944    3.519118    1.485000
   150  Cl    c    -6.267101   -3.672564    6.502083    1.485000
   151  Sc    c     1.165670   -5.649215   -7.896764    3.000000
   152  Cl    c     6.313506   -3.663678    6.499925    1.485000
   153  Cl    c    -0.832339   -9.111548    3.512591    1.485000
   154  Cl    c     8.602572    3.275688    3.513356    1.485000
   155  Cl    c    -0.842386   -9.454161   -2.938194    1.485000
   156  Cl    c     8.613579   -3.994581   -2.938092    1.485000
   157  Cl    c    -3.120139   -9.434077    0.049268    1.485000
   158  Cl    c     9.735921   -2.012549    0.049201    1.485000
   159  Cl    c     6.595499   -3.824905   -6.398715    1.485000
   160  Cl    c     3.167311   -9.448659    0.050049    1.485000
   161  Cl    c     6.604930   -7.464964    0.050084    1.485000
   162  Cl    c    -7.417829   -5.642805    3.516807    1.485000
   163  Sc    c     4.311343   -7.464261    5.009647    3.000000
   164  Cl    c     8.604370   -3.665152    3.512162    1.485000
   165  Cl    c     0.023921   -7.616801    6.502702    1.485000
   166  Cl    c    -1.127214    1.620416    9.970574    1.485000
   167  Cl    c    -0.835078   -1.842598    9.972357    1.485000
   168  Cl    c    -3.996497   -0.356993   -9.404869    1.485000
   169  Cl    c     2.307694   -0.362956    9.971334    1.485000
   170  Sc    c    -8.279602    3.442604    5.013175    3.000000
   171  Sc    c     1.165440    8.892348    5.016595    3.000000
   172  Cl    c     2.303160    3.596297   -9.393054    1.485000
   173  Cl    c     2.032826   -3.834505   -9.392232    1.485000
   174  Sc    c    -8.279691   -3.830060    5.016118    3.000000
   175  Sc    c     1.166019   -9.281287    5.017148    3.000000
   176  Cl    c   -10.341307   -0.054401   -2.944556    1.485000
   177  Cl    c     5.223360    8.932448   -2.944197    1.485000
   178  Sc    c    -5.130837   -9.290051   -1.437999    3.000000
   179  Sc    c    10.616583   -0.198291   -1.436859    3.000000
   180  Cl    c    -0.839048    5.098988   -9.401016    1.485000
   181  Cl    c    -3.980918   -0.362223    9.969564    1.485000
   182  Sc    c    -5.132994    5.258742   -7.897150    3.000000
   183  Cl    c    -3.996800    3.597351   -9.391366    1.485000
   184  Cl    c     5.170851    1.623534   -9.397573    1.485000
   185  Cl    c     2.310220    3.605467    9.968658    1.485000
   186  Cl    c    -9.410275    5.410757    0.051117    1.485000
   187  Cl    c     0.025754   10.858663    0.051135    1.485000
   188  Cl    c     2.018390   -3.825491    9.968988    1.485000
   189  Cl    c     5.455775    8.724476    3.514030    1.485000
   190  Cl    c    -9.413572   -5.493026    0.056399    1.485000
   191  Cl    c     9.470593    5.409463    0.056456    1.485000
   192  Cl    c     0.010259  -10.945549    0.066409    1.485000
   193  Cl    c     9.480502   -5.477971    0.066344    1.485000
   194  Sc    c    -5.130016   -5.648059   -7.896998    3.000000
   195  Sc    c    -8.287143    7.080956   -1.439467    3.000000
   196  Sc    c    -1.983033   10.720633   -1.438283    3.000000
   197  Cl    c    -4.260265   -3.831882   -9.389916    1.485000
   198  Cl    c     5.455412   -1.858405   -9.388403    1.485000
   199  Sc    c    -1.982295   -7.464764   -7.895327    3.000000
   200  Sc    c     7.463440   -2.012795   -7.895246    3.000000
   201  Cl    c    -0.843068   -5.801403   -9.384027    1.485000
   202  Cl    c   -10.557233   -0.193735    3.520624    1.485000
   203  Cl    c     5.457529   -9.113335    3.513358    1.485000
   204  Cl    c    -0.833719    5.082949    9.964748    1.485000
   205  Cl    c    -5.975233    7.070306   -6.387205    1.485000
   206  Cl    c    -9.118810    1.623339   -6.388235    1.485000
   207  Cl    c     5.451138   -9.435941   -2.927130    1.485000
   208  Cl    c    -3.981272    3.607546    9.967029    1.485000
   209  Cl    c    -3.127774    8.729760    6.509407    1.485000
[...]
    385 z         -1.263142     -1.278171    -0.015029    Cartesian    1.19
    386 x          1.935244      1.932649    -0.002595    Cartesian   -0.13
    386 y        -11.182068    -11.189338    -0.007270    Cartesian    0.07
    386 z          7.716029      7.707669    -0.008359    Cartesian   -0.11
    387 x          5.569514      5.577234     0.007720    Cartesian    0.14
    387 y         -9.084344     -9.085693    -0.001348    Cartesian    0.01
    387 z          7.716029      7.707799    -0.008230    Cartesian   -0.11
    388 x         -4.358393     -4.355040     0.003353    Cartesian   -0.08
    388 y        -11.182068    -11.173809     0.008259    Cartesian   -0.07
    388 z          7.716029      7.708748    -0.007281    Cartesian   -0.09
    389 x          8.716333      8.707502    -0.008831    Cartesian   -0.10
    389 y         -3.633895     -3.632636     0.001259    Cartesian   -0.03
    389 z          7.716029      7.708814    -0.007215    Cartesian   -0.09
    390 x          7.505211      7.504106    -0.001105    Cartesian   -0.01
    390 y         -5.169281     -5.168295     0.000986    Cartesian   -0.02
    390 z         11.642631     11.634479    -0.008152    Cartesian   -0.07
    391 x          0.724123      0.729167     0.005044    Cartesian    0.70
    391 y         -5.450188     -5.452479    -0.002291    Cartesian    0.04
    391 z         -1.263142     -1.265742    -0.002600    Cartesian    0.21
    392 x         -8.716333     -8.717129    -0.000797    Cartesian    0.01
    392 y         -7.267005     -7.263930     0.003075    Cartesian   -0.04
    392 z         11.642631     11.638180    -0.004451    Cartesian   -0.04
    393 x          1.211574      1.206399    -0.005176    Cartesian   -0.43
    393 y          2.097985      2.093749    -0.004236    Cartesian   -0.20
    393 z         -1.263142     -1.267630    -0.004488    Cartesian    0.36
    394 x          5.569514      5.565414    -0.004101    Cartesian   -0.07
    394 y         -5.450711     -5.445327     0.005384    Cartesian   -0.10
    394 z          1.263142      1.262886    -0.000256    Cartesian   -0.02
    395 x         -1.935244     -1.932924     0.002320    Cartesian   -0.12
    395 y         -3.352464     -3.348095     0.004369    Cartesian   -0.13
    395 z         18.095518     18.093666    -0.001851    Cartesian   -0.01
    396 x         -2.422696     -2.426924    -0.004229    Cartesian    0.17
    396 y          0.000261     -0.001632    -0.001894    Cartesian -724.19
    396 z         18.095518     18.091799    -0.003719    Cartesian   -0.02
    397 x         -1.935697     -1.935936    -0.000239    Cartesian    0.01
    397 y          3.352203      3.355750     0.003547    Cartesian    0.11
    397 z         -1.263142     -1.273779    -0.010637    Cartesian    0.84
    398 x          1.211121      1.210559    -0.000562    Cartesian   -0.05
    398 y         -2.098247     -2.101919    -0.003672    Cartesian    0.18
    398 z         18.095518     18.092479    -0.003038    Cartesian   -0.02
    399 x        -11.375700    -11.424842    -0.049142    Cartesian    0.43
    399 y         -1.535648     -1.558930    -0.023283    Cartesian    1.52
    399 z          5.189744      5.180661    -0.009084    Cartesian   -0.18
    400 x          3.870942      3.915598     0.044656    Cartesian    1.15
    400 y          7.267528      7.298110     0.030583    Cartesian    0.42
    400 z          5.189744      5.181033    -0.008712    Cartesian   -0.17
    401 x          3.870942      3.867732    -0.003209    Cartesian   -0.08
    401 y          0.000261      0.000434     0.000172    Cartesian   65.78
    401 z         -1.263142     -1.270146    -0.007004    Cartesian    0.55
    402 x         -5.082063     -5.088521    -0.006458    Cartesian    0.13
    402 y          2.097985      2.092739    -0.005246    Cartesian   -0.25
    402 z         -1.263142     -1.265414    -0.002272    Cartesian    0.18
    403 x         -1.211121     -1.219828    -0.008707    Cartesian    0.72
    403 y        -12.436286    -12.448158    -0.011873    Cartesian    0.10
    403 z          7.716029      7.719932     0.003904    Cartesian    0.05
    404 x          8.229334      8.243958     0.014623    Cartesian    0.18
    404 y         -6.985836     -6.984232     0.001604    Cartesian   -0.02
    404 z          7.716029      7.719930     0.003901    Cartesian    0.05
    405 x          4.358393      4.355542    -0.002851    Cartesian   -0.07
    405 y         -3.352464     -3.358662    -0.006197    Cartesian    0.18
    405 z         -1.263142     -1.262648     0.000495    Cartesian   -0.04
    406 x         -5.569514     -5.562894     0.006620    Cartesian   -0.12
    406 y         -5.450188     -5.450810    -0.000622    Cartesian    0.01
    406 z         -1.263142     -1.264505    -0.001363    Cartesian    0.11
    407 x          4.357940      4.356468    -0.001472    Cartesian   -0.03
    407 y          6.985836      6.982671    -0.003165    Cartesian   -0.05
    407 z         11.642631     11.636374    -0.006258    Cartesian   -0.05
    408 x        -10.651577    -10.642486     0.009091    Cartesian   -0.09
    408 y         -6.985836     -6.993037    -0.007201    Cartesian    0.10
    408 z          7.716029      7.712954    -0.003074    Cartesian   -0.04
    409 x          8.229334      8.231195     0.001861    Cartesian    0.02
    409 y          3.915063      3.903405    -0.011659    Cartesian   -0.30
    409 z          7.716029      7.713051    -0.002978    Cartesian   -0.04
    410 x         -1.935697     -1.937869    -0.002172    Cartesian    0.11
    410 y         -7.548696     -7.541558     0.007138    Cartesian   -0.09
    410 z         -1.263142     -1.258980     0.004162    Cartesian   -0.33
    411 x         -5.082516     -5.078596     0.003920    Cartesian   -0.08
    411 y         -2.098247     -2.101397    -0.003150    Cartesian    0.15
    411 z         18.095518     18.091158    -0.004359    Cartesian   -0.02
    412 x        -10.651577    -10.641585     0.009992    Cartesian   -0.09
    412 y          3.915063      3.907644    -0.007419    Cartesian   -0.19
    412 z          7.716029      7.710054    -0.005975    Cartesian   -0.08
    413 x         -1.211121     -1.209687     0.001434    Cartesian   -0.12
    413 y          9.365513      9.353145    -0.012368    Cartesian   -0.13
    413 z          7.716029      7.710125    -0.005904    Cartesian   -0.08
    414 x          0.724123      0.718539    -0.005584    Cartesian   -0.77
    414 y         -5.450188     -5.448077     0.002111    Cartesian   -0.04
    414 z         18.095518     18.090807    -0.004710    Cartesian   -0.03
    415 x          1.935244      1.933155    -0.002089    Cartesian   -0.11
    415 y          6.986098      6.979821    -0.006277    Cartesian   -0.09
    415 z         14.168915     14.167019    -0.001896    Cartesian   -0.01
    416 x          1.211574      1.212349     0.000775    Cartesian    0.06
    416 y          2.097985      2.099987     0.002002    Cartesian    0.10
    416 z         18.095518     18.089826    -0.005692    Cartesian   -0.03
    417 x         -4.358393     -4.359019    -0.000627    Cartesian    0.01
    417 y          6.986098      6.986686     0.000589    Cartesian    0.01
    417 z         14.168915     14.165288    -0.003627    Cartesian   -0.03
    418 x          4.358393      4.358034    -0.000359    Cartesian   -0.01
    418 y        -10.619731    -10.616200     0.003531    Cartesian   -0.03
    418 z         11.642631     11.636549    -0.006082    Cartesian   -0.05
    419 x        -10.164579    -10.149015     0.015563    Cartesian   -0.15
    419 y         -0.000261      0.000512     0.000773    Cartesian -295.72
    419 z          1.263142      1.270563     0.007421    Cartesian    0.59
    420 x         -7.017760     -7.005132     0.012629    Cartesian   -0.18
    420 y          5.450188      5.445566    -0.004622    Cartesian   -0.08
    420 z          1.263142      1.271564     0.008422    Cartesian    0.67
    421 x        -11.376153    -11.372097     0.004056    Cartesian   -0.04
    421 y          1.535386      1.531328    -0.004058    Cartesian   -0.26
    421 z         11.642631     11.635698    -0.006933    Cartesian   -0.06
    422 x        -11.376153    -11.372541     0.003612    Cartesian   -0.03
    422 y         -5.731880     -5.728662     0.003217    Cartesian   -0.06
    422 z          5.189744      5.190845     0.001100    Cartesian    0.02
    423 x        -11.863151    -11.857005     0.006146    Cartesian   -0.05
    423 y         -1.816555     -1.816082     0.000473    Cartesian   -0.03
    423 z         11.642631     11.641764    -0.000867    Cartesian   -0.01
    424 x          7.504758      7.500078    -0.004681    Cartesian   -0.06
    424 y          5.169020      5.167304    -0.001716    Cartesian   -0.03
    424 z          5.189744      5.191014     0.001269    Cartesian    0.02
    425 x          4.357940      4.354692    -0.003248    Cartesian   -0.07
    425 y        -11.182329    -11.176619     0.005710    Cartesian   -0.05
    425 z          5.189744      5.195389     0.005644    Cartesian    0.11
    426 x         -1.935697     -1.931369     0.004328    Cartesian   -0.22
    426 y          3.352203      3.343891    -0.008312    Cartesian   -0.25
    426 z         18.095518     18.086859    -0.008659    Cartesian   -0.05
    427 x          1.211574      1.216414     0.004840    Cartesian    0.40
    427 y        -12.436547    -12.471642    -0.035094    Cartesian    0.28
    427 z          5.189744      5.184963    -0.004781    Cartesian   -0.09
    428 x          7.017760      7.045682     0.027922    Cartesian    0.40
    428 y         -9.083821     -9.105593    -0.021771    Cartesian    0.24
    428 z          5.189744      5.184886    -0.004858    Cartesian   -0.09
    429 x          1.935697      1.934252    -0.001445    Cartesian   -0.07
    429 y        -10.619469    -10.613014     0.006455    Cartesian   -0.06
    429 z         14.168915     14.167576    -0.001339    Cartesian   -0.01
    430 x         -4.357940     -4.358564    -0.000624    Cartesian    0.01
    430 y        -10.619469    -10.620591    -0.001122    Cartesian    0.01
    430 z         14.168915     14.167264    -0.001652    Cartesian   -0.01
    431 x        -11.375700    -11.370757     0.004943    Cartesian   -0.04
    431 y         -5.169281     -5.163696     0.005585    Cartesian   -0.11
    431 z         11.642631     11.635964    -0.006667    Cartesian   -0.06
    432 x          8.229334      8.224808    -0.004527    Cartesian   -0.06
    432 y          0.281430      0.276318    -0.005112    Cartesian   -1.82
    432 z         14.168915     14.160096    -0.008819    Cartesian   -0.06
    433 x          3.870942      3.860572    -0.010369    Cartesian   -0.27
    433 y          0.000261      0.000307     0.000045    Cartesian   17.33
    433 z         18.095518     18.086649    -0.008868    Cartesian   -0.05
    434 x          0.724123      0.719670    -0.004453    Cartesian   -0.61
    434 y          9.084344      9.079773    -0.004572    Cartesian   -0.05
    434 z         11.642631     11.638399    -0.004233    Cartesian   -0.04
    435 x          5.082516      5.080398    -0.002117    Cartesian   -0.04
    435 y          5.731880      5.721675    -0.010205    Cartesian   -0.18
    435 z         14.168915     14.159177    -0.009738    Cartesian   -0.07
    436 x          8.228881      8.224027    -0.004855    Cartesian   -0.06
    436 y         -3.914802     -3.908228     0.006574    Cartesian   -0.17
    436 z         14.168915     14.159038    -0.009877    Cartesian   -0.07
    437 x        -10.651577    -10.642639     0.008938    Cartesian   -0.08
    437 y          0.281430      0.276150    -0.005280    Cartesian   -1.88
    437 z         14.168915     14.159996    -0.008919    Cartesian   -0.06
    438 x         -5.082063     -5.078387     0.003675    Cartesian   -0.07
    438 y          2.097985      2.101509     0.003524    Cartesian    0.17
    438 z         18.095518     18.088647    -0.006871    Cartesian   -0.04
    439 x        -11.863151    -11.850281     0.012870    Cartesian   -0.11
    439 y          1.817078      1.813102    -0.003976    Cartesian   -0.22
    439 z          5.189744      5.197493     0.007748    Cartesian    0.15
    440 x          1.211574      1.208567    -0.003007    Cartesian   -0.25
    440 y          9.365251      9.352040    -0.013211    Cartesian   -0.14
    440 z          5.189744      5.197517     0.007773    Cartesian    0.15
    441 x         -7.504758     -7.500433     0.004326    Cartesian   -0.06
    441 y          5.731880      5.724988    -0.006892    Cartesian   -0.12
    441 z         14.168915     14.162306    -0.006609    Cartesian   -0.05
    442 x          5.082516      5.073343    -0.009173    Cartesian   -0.18
    442 y         -8.802653     -8.788071     0.014582    Cartesian   -0.17
    442 z          1.263142      1.272334     0.009191    Cartesian    0.73
    443 x        -10.652030    -10.644288     0.007742    Cartesian   -0.07
    443 y         -3.914802     -3.908500     0.006302    Cartesian   -0.16
    443 z         14.168915     14.161467    -0.007448    Cartesian   -0.05
    444 x          8.229334      8.219701    -0.009633    Cartesian   -0.12
    444 y         -3.352203     -3.342784     0.009419    Cartesian   -0.28
    444 z          1.263142      1.271490     0.008348    Cartesian    0.66
    445 x         -7.504758     -7.505074    -0.000315    Cartesian    0.00
    445 y         -8.802653     -8.790458     0.012195    Cartesian   -0.14
    445 z          1.263142      1.270224     0.007082    Cartesian    0.56
    446 x         -8.228881     -8.233333    -0.004451    Cartesian    0.05
    446 y         -3.352464     -3.352452     0.000012    Cartesian   -0.00
    446 z         -1.263142     -1.266839    -0.003697    Cartesian    0.29
    447 x        -10.651577    -10.645812     0.005765    Cartesian   -0.05
    447 y         -3.352203     -3.348130     0.004073    Cartesian   -0.12
    447 z          1.263142      1.265287     0.002145    Cartesian    0.17
    448 x         -3.870942     -3.864770     0.006171    Cartesian   -0.16
    448 y        -10.901161    -10.895168     0.005993    Cartesian   -0.05
    448 z          1.263142      1.267805     0.004663    Cartesian    0.37
    449 x          0.724123      0.729636     0.005513    Cartesian    0.76
    449 y          5.450711      5.455217     0.004506    Cartesian    0.08
    449 z         -1.263142     -1.266384    -0.003242    Cartesian    0.26
    450 x          4.358393      4.359124     0.000731    Cartesian    0.02
    450 y         -3.352464     -3.347385     0.005080    Cartesian   -0.15
    450 z         18.095518     18.089123    -0.006395    Cartesian   -0.04
    451 x          1.935697      1.932755    -0.002943    Cartesian   -0.15
    451 y          7.548696      7.542411    -0.006285    Cartesian   -0.08
    451 z          1.263142      1.263199     0.000057    Cartesian    0.00
    452 x         -8.229334     -8.226877     0.002457    Cartesian   -0.03
    452 y          6.985836      6.979003    -0.006833    Cartesian   -0.10
    452 z         11.642631     11.637453    -0.005178    Cartesian   -0.04
    453 x         -5.569514     -5.570716    -0.001202    Cartesian    0.02
    453 y         -5.450188     -5.448918     0.001270    Cartesian   -0.02
    453 z         18.095518     18.090225    -0.005292    Cartesian   -0.03
    454 x         -4.357940     -4.353589     0.004351    Cartesian   -0.10
    454 y          7.548696      7.539460    -0.009236    Cartesian   -0.12
    454 z          1.263142      1.262803    -0.000339    Cartesian   -0.03
    455 x          5.082063      5.080641    -0.001422    Cartesian   -0.03
    455 y         -9.365251     -9.353986     0.011265    Cartesian   -0.12
    455 z         14.168915     14.158714    -0.010202    Cartesian   -0.07
    456 x          4.357940      4.353605    -0.004335    Cartesian   -0.10
    456 y          3.352203      3.357628     0.005425    Cartesian    0.16
    456 z         -1.263142     -1.261725     0.001417    Cartesian   -0.11
    457 x          5.569514      5.562128    -0.007386    Cartesian   -0.13
    457 y          5.450188      5.445561    -0.004627    Cartesian   -0.08
    457 z          1.263142      1.264027     0.000885    Cartesian    0.07
    458 x         -7.505211     -7.497390     0.007822    Cartesian   -0.10
    458 y         -9.365251     -9.352497     0.012754    Cartesian   -0.14
    458 z         14.168915     14.158965    -0.009951    Cartesian   -0.07
    459 x         -1.935697     -1.934904     0.000794    Cartesian   -0.04
    459 y         -7.548696     -7.548198     0.000498    Cartesian   -0.01
    459 z         18.095518     18.090934    -0.004584    Cartesian   -0.03
    460 x          0.724123      0.720946    -0.003177    Cartesian   -0.44
    460 y        -12.717454    -12.713337     0.004117    Cartesian   -0.03
    460 z         11.642631     11.639344    -0.003287    Cartesian   -0.03
    461 x          2.422696      2.421628    -0.001068    Cartesian   -0.04
    461 y        -10.901161    -10.895464     0.005697    Cartesian   -0.05
    461 z          1.263142      1.264031     0.000888    Cartesian    0.07
    462 x          7.505211      7.498593    -0.006618    Cartesian   -0.09
    462 y          5.731618      5.724494    -0.007124    Cartesian   -0.12
    462 z         11.642631     11.643464     0.000833    Cartesian    0.01
    463 x         -8.716333     -8.706620     0.009713    Cartesian   -0.11
    463 y          7.267528      7.262819    -0.004708    Cartesian   -0.06
    463 z          5.189744      5.193972     0.004228    Cartesian    0.08
    464 x         -5.082063     -5.082838    -0.000776    Cartesian    0.02
    464 y          9.365251      9.354346    -0.010905    Cartesian   -0.12
    464 z          5.189744      5.194082     0.004337    Cartesian    0.08
    465 x          8.716333      8.705380    -0.010953    Cartesian   -0.13
    465 y         -0.000261     -0.000452    -0.000191    Cartesian   72.96
    465 z          1.263142      1.262342    -0.000800    Cartesian   -0.06
--------------------------------------------------------------------------------


  Time to end of optimisation  =      107.9224 seconds


  Peak dynamic memory used =      35.12 MB 


  Timing analysis for GULP :

--------------------------------------------------------------------------------
  Task / Subroutine                                          Time (Seconds)
--------------------------------------------------------------------------------
  Calculation of reciprocal space energy and derivatives          0.0045
  Calculation of reciprocal space energy using symmetry           0.0359
  Calculation of real space energy and derivatives                0.0149
  Calculation of real space energy using symmetry                 0.6455
  Calculation for region 1 energy and derivatives (2-b)          31.1643
  Calculation for region 2a energy                               70.5479
  Calculation for region 2b energy                                0.0213
  Calculation and manipulation of Hessian matrix                  0.0074
  Calculation of matrix inversion                                 5.1918
  Symmetry generation of equivalent positions                     0.0015
  Global summation overhead                                       0.0002
--------------------------------------------------------------------------------
  Total CPU time                                                107.9225
--------------------------------------------------------------------------------


  Dump file written as ScCl3.grs



  **** GULP has completed with   2 warnings - beware! ****

  Job Finished at 11:34.43 18th August     2021                               

