********************************************************************************
*                       GENERAL UTILITY LATTICE PROGRAM                        *
*                                 Julian Gale                                  *
*                       Curtin Institute for Computation                       *
*                    School of Molecular and Life Sciences                     *
*                    Curtin University, Western Australia                      *
********************************************************************************
* Version = 5.2.0 * Last modified =  10th September 2020                       *
********************************************************************************
*  optimise     - perform optimisation run                                     *
*  conp         - constant pressure calculation                                *
*  property     - calculate properties for final geometry                      *
*  defect       - perform defect calculation after bulk run                    *
*  compare      - compare initial and final structures                         *
********************************************************************************

  Job Started  at 11:32.54 18th August     2021                               

  Number of CPUs =     1


  Total number of configurations input =      1

********************************************************************************
*  Input for Configuration =   1                                               *
********************************************************************************

  Formula = Sc2Cl6                                                      

  Number of irreducible atoms/shells =       3


  Total number atoms/shells =      14

  Dimensionality = 3               :  Bulk   


  Symmetry :

  Crystal family                   :  Hexagonal   
  Crystal class  (Groth - 1921)    :  Trigonal Rhombohedral                

  Space group (centrosymmetric)    :  R -3            

  Patterson group                  :  R -3     

  Cartesian lattice vectors (Angstroms) :

        3.246588    1.874418    6.441540
       -3.246588    1.874418    6.441540
        0.000000   -3.748837    6.441540

  Cell parameters (Angstroms/Degrees):

  a =       7.4530    alpha =  51.6480
  b =       7.4530    beta  =  51.6480
  c =       7.4530    gamma =  51.6480

  Initial cell volume =         235.198534 Angs**3

  Temperature of configuration =   0.00     K 

  Pressure of configuration =         0.000 GPa 

  Fractional coordinates of asymmetric unit :

--------------------------------------------------------------------------------
   No.  Atomic       x           y          z         Charge      Occupancy
        Label      (Frac)      (Frac)     (Frac)        (e)         (Frac)  
--------------------------------------------------------------------------------
      1 Sc    c    0.333900    0.333900    0.333900 *   3.00000    1.000000    
      2 Cl    c    0.073700 *  0.443900 *  0.705300 *   1.48500    1.000000    
      3 Cl    s    0.073700 *  0.443900 *  0.705300 *  -2.48500    1.000000    
--------------------------------------------------------------------------------


  Constraints : 

--------------------------------------------------------------------------------
  Constraint no.      Unconstrained     Constrained    Coefficient    Offset
                         Variable         Variable
--------------------------------------------------------------------------------
           1              Strain 1        Strain 2       1.00000      0.0000
--------------------------------------------------------------------------------


********************************************************************************
*  General input information                                                   *
********************************************************************************

  Species output for all configurations : 

--------------------------------------------------------------------------------
  Species    Type    Atomic    Atomic    Charge       Radii (Angs)     Library
                     Number     Mass       (e)     Cova   Ionic  VDW   Symbol
--------------------------------------------------------------------------------
    Sc       Core       21      44.96   3.000000   1.440  0.000  2.150          
    Cl       Core       17      35.45   1.485000   0.990  0.000  1.650          
    Cl       Shell      17       0.00  -2.485000   0.990  0.000  1.650          
--------------------------------------------------------------------------------


  Lattice summation method               =    Ewald          (3-D)
                                         =    Parry          (2-D)
                                         =    Saunders et al (1-D)
  Accuracy factor for lattice sums       =   12.000


  Analytic derivatives to be used

  Time limit = Infinity

  Maximum range for interatomic potentials =    100000.000000 Angstroms

  General interatomic potentials :

--------------------------------------------------------------------------------
Atom  Types   Potential      Parameter       Value         Units   Cutoffs(Ang)
  1     2                                                            Min /  Max 
--------------------------------------------------------------------------------
Cl   c Cl   s Spring (c-s)  Spring k 2       29.380000    eV*Ang^-2 0.000  0.800
                            Spring k 4       0.0000000    eV*Ang^-4 
--------------------------------------------------------------------------------
Sc   c Cl   s Buckingham    Buckingham A     12131.350    eV        0.000 12.000
                            Buckingham rho  0.25070000    Ang       
                            Buckingham C     0.0000000    eV*Ang^6  
--------------------------------------------------------------------------------
Cl   s Cl   s Buckingham    Buckingham A     1227.2000    eV        0.000 12.000
                            Buckingham rho  0.32100000    Ang       
                            Buckingham C     14.530000    eV*Ang^6  
--------------------------------------------------------------------------------

********************************************************************************
*  Output for configuration   1                                                *
********************************************************************************


  Components of energy : 

--------------------------------------------------------------------------------
  Interatomic potentials     =           6.77737779 eV    
  Monopole - monopole (real) =         -30.86300284 eV    
  Monopole - monopole (recip)=         -65.52201623 eV    
  Monopole - monopole (total)=         -96.38501907 eV    
--------------------------------------------------------------------------------
  Total lattice energy : 
    Primitive unit cell      =         -89.60764128 eV    
    Non-primitive unit cell  =        -268.82292384 eV    
--------------------------------------------------------------------------------
  Total lattice energy (in kJmol-1): 
    Primitive unit cell      =           -8645.7676 kJ/(mole unit cells)
    Non-primitive unit cell  =          -25937.3028 kJ/(mole unit cells)
--------------------------------------------------------------------------------


  Number of variables =        9

  Maximum number of calculations  =          1000
  Maximum Hessian update interval =            10
  Maximum step size               =   1.000000000
  Maximum parameter tolerance     =   0.000010000
  Maximum function  tolerance     =   0.000010000
  Maximum gradient  tolerance     =   0.001000000
  Maximum gradient  component     =   0.010000000

  Symmetry constrained optimisation

  Symmetry used for second derivatives

  Cell parameters to be optimised using strains

  Newton-Raphson optimiser to be used

  BFGS hessian update to be used

  Lower half triangular hessian to be used

  Start of bulk optimisation :

  Cycle:      0 Energy:       -89.607641  Gnorm:    194.660938  CPU:    0.017
  ** Hessian calculated **
  Cycle:      1 Energy:       -99.336245  Gnorm:     16.922396  CPU:    0.025
  Cycle:      2 Energy:       -99.561570  Gnorm:      7.561347  CPU:    0.033
  Cycle:      3 Energy:       -99.729576  Gnorm:      4.412393  CPU:    0.040
  Cycle:      4 Energy:       -99.829400  Gnorm:      2.218678  CPU:    0.046
  Cycle:      5 Energy:       -99.844572  Gnorm:      0.723795  CPU:    0.051
  Cycle:      6 Energy:       -99.846381  Gnorm:      0.448826  CPU:    0.056
  Cycle:      7 Energy:       -99.846853  Gnorm:      0.344817  CPU:    0.060
  Cycle:      8 Energy:       -99.849123  Gnorm:      0.319075  CPU:    0.069
  Cycle:      9 Energy:       -99.851112  Gnorm:      0.253552  CPU:    0.079
  Cycle:     10 Energy:       -99.852597  Gnorm:      0.161985  CPU:    0.088
  ** Hessian calculated **
  Cycle:     11 Energy:       -99.854095  Gnorm:      0.114649  CPU:    0.105
  Cycle:     12 Energy:       -99.855517  Gnorm:      0.062367  CPU:    0.113
  Cycle:     13 Energy:       -99.856271  Gnorm:      0.091299  CPU:    0.120
  Cycle:     14 Energy:       -99.856398  Gnorm:      0.057833  CPU:    0.129
  Cycle:     15 Energy:       -99.709969  Gnorm:      9.382415  CPU:    0.157
  ** Hessian calculated **
  Cycle:     16 Energy:       -99.834592  Gnorm:      3.493936  CPU:    0.165
  Cycle:     17 Energy:       -99.855984  Gnorm:      0.183406  CPU:    0.170
  Cycle:     18 Energy:       -99.856377  Gnorm:      0.024886  CPU:    0.175
  ** Hessian calculated **
  Cycle:     19 Energy:       -99.856378  Gnorm:      0.010051  CPU:    0.181
  Cycle:     20 Energy:       -99.856379  Gnorm:      0.013393  CPU:    0.186
  Cycle:     21 Energy:       -99.856379  Gnorm:      0.009613  CPU:    0.190
  Cycle:     22 Energy:       -99.856380  Gnorm:      0.011718  CPU:    0.196
  Cycle:     23 Energy:       -99.856381  Gnorm:      0.013744  CPU:    0.201
  Cycle:     24 Energy:       -99.856381  Gnorm:      0.012669  CPU:    0.206
  Cycle:     25 Energy:       -99.856382  Gnorm:      0.013916  CPU:    0.211
  Cycle:     26 Energy:       -99.856383  Gnorm:      0.012516  CPU:    0.217
  Cycle:     27 Energy:       -99.856383  Gnorm:      0.006850  CPU:    0.222
  Cycle:     28 Energy:       -99.856383  Gnorm:      0.005130  CPU:    0.227
  ** Hessian calculated **
  Cycle:     29 Energy:       -99.856383  Gnorm:      0.005098  CPU:    0.234
  Cycle:     30 Energy:       -99.856383  Gnorm:      0.005050  CPU:    0.239
  Cycle:     31 Energy:       -99.856384  Gnorm:      0.004978  CPU:    0.244
  Cycle:     32 Energy:       -99.856384  Gnorm:      0.004870  CPU:    0.249
  Cycle:     33 Energy:       -99.856385  Gnorm:      0.004708  CPU:    0.254
  Cycle:     34 Energy:       -99.856385  Gnorm:      0.004465  CPU:    0.259
  Cycle:     35 Energy:       -99.856387  Gnorm:      0.004100  CPU:    0.265
  Cycle:     36 Energy:       -99.856389  Gnorm:      0.003183  CPU:    0.270
  Cycle:     37 Energy:       -99.856390  Gnorm:      0.002732  CPU:    0.275
  Cycle:     38 Energy:       -99.856390  Gnorm:      0.002622  CPU:    0.280
  ** Hessian calculated **
  Cycle:     39 Energy:       -99.856390  Gnorm:      0.002617  CPU:    0.291
  Cycle:     40 Energy:       -99.856390  Gnorm:      0.002611  CPU:    0.299
  Cycle:     41 Energy:       -99.856390  Gnorm:      0.002596  CPU:    0.306
  Cycle:     42 Energy:       -99.856390  Gnorm:      0.002573  CPU:    0.314
  Cycle:     43 Energy:       -99.856391  Gnorm:      0.002556  CPU:    0.324
  Cycle:     44 Energy:       -99.856391  Gnorm:      0.002551  CPU:    0.329
  Cycle:     45 Energy:       -99.856376  Gnorm:      0.010367  CPU:    0.344
  ** Hessian calculated **
  Cycle:     46 Energy:       -99.856376  Gnorm:      0.003162  CPU:    0.351
  Cycle:     47 Energy:       -99.856376  Gnorm:      0.004154  CPU:    0.356
  Cycle:     48 Energy:       -99.856376  Gnorm:      0.004258  CPU:    0.361
  Cycle:     49 Energy:       -99.856376  Gnorm:      0.003063  CPU:    0.367
  Cycle:     50 Energy:       -99.856376  Gnorm:      0.003213  CPU:    0.372
  Cycle:     51 Energy:       -99.856376  Gnorm:      0.002448  CPU:    0.377
  Cycle:     52 Energy:       -99.856376  Gnorm:      0.002432  CPU:    0.382
  Cycle:     53 Energy:       -99.856376  Gnorm:      0.002202  CPU:    0.387
  Cycle:     54 Energy:       -99.856376  Gnorm:      0.003030  CPU:    0.393
  Cycle:     55 Energy:       -99.856377  Gnorm:      0.003988  CPU:    0.398
  ** Hessian calculated **
  Cycle:     56 Energy:       -99.856377  Gnorm:      0.003870  CPU:    0.405
  Cycle:     57 Energy:       -99.856377  Gnorm:      0.003694  CPU:    0.410
  Cycle:     58 Energy:       -99.856377  Gnorm:      0.003429  CPU:    0.415
  Cycle:     59 Energy:       -99.856377  Gnorm:      0.003032  CPU:    0.421
  Cycle:     60 Energy:       -99.856378  Gnorm:      0.002436  CPU:    0.426
  Cycle:     61 Energy:       -99.856378  Gnorm:      0.001545  CPU:    0.431


  **** Optimisation achieved ****


  Final energy =     -99.85637867 eV
  Final Gnorm  =       0.00022970

  Components of energy : 

--------------------------------------------------------------------------------
  Interatomic potentials     =          20.55356182 eV    
  Monopole - monopole (real) =          80.99460097 eV    
  Monopole - monopole (recip)=        -201.40454146 eV    
  Monopole - monopole (total)=        -120.40994049 eV    
--------------------------------------------------------------------------------
  Total lattice energy : 
    Primitive unit cell      =         -99.85637867 eV    
    Non-primitive unit cell  =        -299.56913600 eV    
--------------------------------------------------------------------------------
  Total lattice energy (in kJmol-1): 
    Primitive unit cell      =           -9634.6141 kJ/(mole unit cells)
    Non-primitive unit cell  =          -28903.8423 kJ/(mole unit cells)
--------------------------------------------------------------------------------

  Final asymmetric unit coordinates :

--------------------------------------------------------------------------------
   No.  Atomic        x           y           z         Radius
        Label       (Frac)      (Frac)      (Frac)       (Angs) 
--------------------------------------------------------------------------------
     1  Sc    c     0.333302    0.333302    0.333302    0.000000
     2  Cl    c     0.077345    0.440528    0.713912    0.000000
     3  Cl    s     0.065297    0.450169    0.680282    0.000000
--------------------------------------------------------------------------------

  Final Cartesian lattice vectors (Angstroms) :

        3.146819    1.816817    6.452887
       -3.146819    1.816817    6.452887
        0.000000   -3.633633    6.452887


  Final cell parameters and derivatives :

--------------------------------------------------------------------------------
       a            7.405608 Angstrom     dE/de1(xx)    -0.000123 eV/strain
       b            7.405608 Angstrom     dE/de2(yy)     0.000000 eV/strain
       c            7.405608 Angstrom     dE/de3(zz)    -0.000049 eV/strain
       alpha       50.291669 Degrees      dE/de4(yz)     0.000000 eV/strain
       beta        50.291669 Degrees      dE/de5(xz)     0.000000 eV/strain
       gamma       50.291669 Degrees      dE/de6(xy)     0.000000 eV/strain
--------------------------------------------------------------------------------

  Primitive cell volume =           221.354351 Angs**3

  Density of cell =      2.270208 g/cm**3

  Non-primitive lattice parameters :

  a    =     6.293637  b   =     6.293637  c    =    19.358660
  alpha=    90.000000  beta=    90.000000  gamma=   120.000000

  Non-primitive cell volume =           664.063053 Angs**3


  Final internal derivatives :

--------------------------------------------------------------------------------
   No.  Atomic          a             b             c           Radius
        Label          (eV)          (eV)          (eV)        (eV/Angs)
--------------------------------------------------------------------------------
      1 Sc    c       0.000000      0.000000      0.000333      0.000000
      2 Cl    c      -0.000512      0.000026      0.001871      0.000000
      3 Cl    s      -0.000302      0.000461     -0.000278      0.000000
--------------------------------------------------------------------------------
  Maximum abs         0.000512      0.000461      0.001871      0.000000
--------------------------------------------------------------------------------

  Comparison of initial and final structures : 

--------------------------------------------------------------------------------
  Parameter   Initial value   Final value   Difference    Units      Percent
--------------------------------------------------------------------------------
    Volume       705.595603    664.063053   -41.532550    Angs**3     -5.89
    a              6.493176      6.293637    -0.199538    Angstroms   -3.07
    b              6.493176      6.293637    -0.199538    Angstroms   -3.07
    c             19.324619     19.358660     0.034041    Angstroms    0.18
    alpha         90.000000     90.000000     0.000000    Degrees      0.00
    beta          90.000000     90.000000     0.000000    Degrees      0.00
    gamma        120.000000    120.000000     0.000000    Degrees      0.00
      1 x          0.000000      0.000000     0.000000    Fractional   0.00
      1 y          0.000000      0.000000     0.000000    Fractional   0.00
      1 z          0.333900      0.333302     0.000598    Fractional   0.18
      2 x          0.666067      0.666750     0.000683    Fractional   0.10
      2 y          0.702333      0.696683     0.005650    Fractional   0.80
      2 z          0.407633      0.410595     0.002962    Fractional   0.73
      3 x          0.666067      0.666715     0.000648    Fractional   0.10
      3 y          0.702333      0.718301     0.015968    Fractional   2.27
      3 z          0.407633      0.398583     0.009051    Fractional   2.22
--------------------------------------------------------------------------------


  Born effective charge tensors : 

-------------------------------------------------------------------------------
  Atom             x           y             z
-------------------------------------------------------------------------------
    1 Sc    x       1.8547     -0.0008      0.0000
            y       0.0008      1.8547      0.0000
            z       0.0000      0.0000      1.3341
-------------------------------------------------------------------------------
    2 Cl    x      -0.6622     -0.0739     -0.0054
            y      -0.0744     -0.5743      0.0077
            z      -0.0118      0.0242     -0.4447
-------------------------------------------------------------------------------




  Elastic Constant Matrix: (Units=GPa)

-------------------------------------------------------------------------------
  Indices      1         2         3         4         5         6    
-------------------------------------------------------------------------------
       1     59.0042   36.7253    0.0676   -0.0391    0.0164    0.0000
       2     36.7253   59.0042    0.0676    0.0391   -0.0164   -0.0000
       3      0.0676    0.0676    1.3662   -0.0000   -0.0000    0.0000
       4     -0.0391    0.0391   -0.0000    0.1362   -0.0000   -0.0164
       5      0.0164   -0.0164   -0.0000   -0.0000    0.1362   -0.0391
       6      0.0000   -0.0000    0.0000   -0.0164   -0.0391   11.1394
-------------------------------------------------------------------------------


  Elastic Compliance Matrix: (Units=1/GPa)

-------------------------------------------------------------------------------
  Indices      1         2         3         4         5         6    
-------------------------------------------------------------------------------
       1    0.027693 -0.017246 -0.000517  0.012917 -0.005403 -0.000000
       2   -0.017246  0.027693 -0.000517 -0.012917  0.005403  0.000000
       3   -0.000517 -0.000517  0.731998 -0.000000  0.000000 -0.000000
       4    0.012917 -0.012917 -0.000000  7.352608  0.000000  0.010807
       5   -0.005403  0.005403  0.000000  0.000000  7.352608  0.025834
       6   -0.000000  0.000000 -0.000000  0.010807  0.025834  0.089878
-------------------------------------------------------------------------------

  Mechanical properties :

-------------------------------------------------------------------------------
  Convention :                    Reuss         Voigt         Hill
-------------------------------------------------------------------------------
  Bulk  Modulus (GPa)     =       1.33187      21.45510      11.39349
  Shear Modulus (GPa)     =       0.31507       7.78329       4.04918
-------------------------------------------------------------------------------
  Velocity S-wave (km/s)  =       0.37254       1.85161       1.33552
  Velocity P-wave (km/s)  =       0.87848       3.74459       2.71972
-------------------------------------------------------------------------------
  Compressibility (1/GPa) =    0.75082247
-------------------------------------------------------------------------------
  Stress axis :                     x             y             z
-------------------------------------------------------------------------------
  Youngs Moduli (GPa)     =      36.11042      36.11042       1.36612
-------------------------------------------------------------------------------
  Poissons Ratio (x)      =                     0.62276       0.00071
  Poissons Ratio (y)      =       0.62276                     0.00071
  Poissons Ratio (z)      =       0.01868       0.01868
-------------------------------------------------------------------------------


  Piezoelectric Strain Matrix: (Units=C/m**2)

-------------------------------------------------------------------------------
  Indices      1         2         3         4         5         6    
-------------------------------------------------------------------------------
       x    -0.00000  -0.00000  -0.00000  -0.00000  -0.00000  -0.00000
       y     0.00000  -0.00000   0.00000   0.00000   0.00000  -0.00000
       z    -0.00000   0.00000  -0.00000   0.00000  -0.00000  -0.00000
-------------------------------------------------------------------------------


  Piezoelectric Stress Matrix: (Units=10**-11 C/N)

-------------------------------------------------------------------------------
  Indices      1         2         3         4         5         6    
-------------------------------------------------------------------------------
       x    -0.00000  -0.00000  -0.00000  -0.00000  -0.00000  -0.00000
       y     0.00000  -0.00000   0.00000   0.00000   0.00000  -0.00000
       z    -0.00000   0.00000  -0.00000   0.00000  -0.00000  -0.00000
-------------------------------------------------------------------------------


  Static dielectric constant tensor : 

-------------------------------------------------------------------------------
              x         y         z
-------------------------------------------------------------------------------
       x     2.69429  -0.00000   0.00000
       y    -0.00000   2.69429   0.00000
       z     0.00000   0.00000   2.22327
--------------------------------------------------------------------------------

  High frequency dielectric constant tensor : 

-------------------------------------------------------------------------------
              x         y         z
-------------------------------------------------------------------------------
       x     2.11991  -0.00000   0.00000
       y    -0.00000   2.11991   0.00000
       z     0.00000   0.00000   1.97865
-------------------------------------------------------------------------------

  Static refractive indices : 

-------------------------------------------------------------------------------
    1 =    1.49106      2 =    1.64143      3 =    1.64143
-------------------------------------------------------------------------------

  High frequency refractive indices : 

-------------------------------------------------------------------------------
    1 =    1.40664      2 =    1.45599      3 =    1.45599
-------------------------------------------------------------------------------


  Time to end of optimisation =       0.4461 seconds

********************************************************************************
*  Defect calculation for configuration   1 :                                  *
********************************************************************************



!!!!!!!!!!!!!!!!!!!!!!!!!!!!!!!!!!!!!!!!!!!!!!!!!!!!!!!!!!!!!!!!!!!!!!!!!!!!!!!!
!! WARNING : Ambiguous vacancy specifier used
!!!!!!!!!!!!!!!!!!!!!!!!!!!!!!!!!!!!!!!!!!!!!!!!!!!!!!!!!!!!!!!!!!!!!!!!!!!!!!!!



!!!!!!!!!!!!!!!!!!!!!!!!!!!!!!!!!!!!!!!!!!!!!!!!!!!!!!!!!!!!!!!!!!!!!!!!!!!!!!!!
!! WARNING : Ambiguous vacancy specifier used
!!!!!!!!!!!!!!!!!!!!!!!!!!!!!!!!!!!!!!!!!!!!!!!!!!!!!!!!!!!!!!!!!!!!!!!!!!!!!!!!

  Total number of defects =      2

  Total charge on defect  =   1.00

  Defect centre is at   0.0737   0.4439   0.7053  Frac

  Region 1 radius =  13.0000      Number of ions =    585

  Region 2 radius =  24.0000      Number of ions =   3078

  Region 2a mode = 4 : screened electrostatics due to region 1 
                       neglect correction to region 1 forces from 2a
                       region 2a displacements based on defects only

  Region 2a ions will only interact with defects in region 1

  Vacancies:

--------------------------------------------------------------------------------
    Specification type     Symbol/Number         x          y          z
--------------------------------------------------------------------------------
    Atom                    Cl    core
    Atom                    Cl    shel
--------------------------------------------------------------------------------


  Components of defect energy : 

--------------------------------------------------------------------------------
  Region 1 - region 1                   =     22.41391544 eV
  Region 1 - region 2a (unrelaxed)      =    -12.12981087 eV
  Region 1 - 2a (relaxed - correction)  =     -0.30040973 eV
  Region 1 (Total)                      =      9.98369484 eV
  Region 2a                             =      0.15022454 eV
  Region 2b                             =     -0.18241543 eV
--------------------------------------------------------------------------------
  Total defect energy                   =      9.95150394 eV
--------------------------------------------------------------------------------

  Largest displacement in region 2 =   0.0097 Angstroms


  Number of variables =     1755

  Maximum number of calculations  =        1000
  Maximum Hessian update interval =          10
  Maximum step size               =   1.0000000
  Maximum parameter tolerance     =   0.0000100
  Maximum function  tolerance     =   0.0000100
  Maximum gradient  tolerance     =   0.0010000

  Symmetry adapted optimisation

  Newton-Raphson optimiser to be used

  BFGS hessian update to be used

  Lower half triangular hessian to be used

  Start of defect optimisation :

  Cycle:      0 Defect Energy:   9.951504  Gnorm:     0.010090  CPU:    7.189
  ** Hessian calculated **
  Cycle:      1 Defect Energy:   8.871839  Gnorm:     0.008046  CPU:   33.567
  Cycle:      2 Defect Energy:   7.644348  Gnorm:     0.004829  CPU:   56.472
  Cycle:      3 Defect Energy:   6.822196  Gnorm:     0.000497  CPU:   72.394
  Cycle:      4 Defect Energy:   6.797033  Gnorm:     0.000388  CPU:   75.612
  Cycle:      5 Defect Energy:   6.778329  Gnorm:     0.000322  CPU:   78.534
  Cycle:      6 Defect Energy:   6.777816  Gnorm:     0.000329  CPU:   85.327
  ** Hessian calculated **
  Cycle:      7 Defect Energy:   6.756920  Gnorm:     0.000232  CPU:   96.731
  Cycle:      8 Defect Energy:   6.746058  Gnorm:     0.000165  CPU:  100.014
  Cycle:      9 Defect Energy:   6.740095  Gnorm:     0.000118  CPU:  103.424
  Cycle:     10 Defect Energy:   6.736815  Gnorm:     0.000084  CPU:  106.809
  Cycle:     11 Defect Energy:   6.735065  Gnorm:     0.000060  CPU:  110.067
  Cycle:     12 Defect Energy:   6.734143  Gnorm:     0.000042  CPU:  113.287
  Cycle:     13 Defect Energy:   6.733659  Gnorm:     0.000030  CPU:  116.471
  Cycle:     14 Defect Energy:   6.733414  Gnorm:     0.000021  CPU:  118.442
  Cycle:     15 Defect Energy:   6.733275  Gnorm:     0.000015  CPU:  120.460
  Cycle:     16 Defect Energy:   6.733210  Gnorm:     0.000011  CPU:  123.291
  ** Hessian calculated **
  Cycle:     17 Defect Energy:   6.733178  Gnorm:     0.000007  CPU:  134.146
  Cycle:     18 Defect Energy:   6.733162  Gnorm:     0.000005  CPU:  137.026


  **** Optimisation achieved ****


  Final defect energy  =        6.73315462
  Final defect Gnorm   =        0.00000363

  Components of defect energy : 

--------------------------------------------------------------------------------
  Region 1 - region 1                   =     18.87323155 eV
  Region 1 - region 2a (unrelaxed)      =    -11.81965564 eV
  Region 1 - 2a (relaxed - correction)  =     -0.27566047 eV
  Region 1 (Total)                      =      6.77791545 eV
  Region 2a                             =      0.13779321 eV
  Region 2b                             =     -0.18255404 eV
--------------------------------------------------------------------------------
  Total defect energy                   =      6.73315462 eV
--------------------------------------------------------------------------------

  Largest displacement in region 2 =   0.0097 Angstroms

  Final coordinates of region 1 :

--------------------------------------------------------------------------------
   No.  Atomic        x           y           z          Radius      Charge
        Label       (Angs)      (Angs)      (Angs)       (Angs)       (e) 
--------------------------------------------------------------------------------
     1  Sc    c    -3.491458   -2.006128    6.158287    0.000000    3.000000
     2  Sc    c     0.336139    0.202169    6.161897    0.000000    3.000000
     3  Cl    c    -1.813762   -0.491364    5.267558    0.000000    1.485000
     4  Cl    c    -4.330565   -0.259476    7.714696    0.000000    1.485000
     5  Cl    c    -0.756834    1.803082    7.717474    0.000000    1.485000
     6  Cl    c    -3.805930   -3.673325    7.964971    0.000000    1.485000
     7  Cl    c     1.938197   -0.358271    7.967911    0.000000    1.485000
     8  Cl    c    -2.369505   -3.777894    4.833266    0.000000    1.485000
     9  Cl    c     1.308927   -1.655770    4.836869    0.000000    1.485000
    10  Cl    c    -1.068585   -5.627157    7.881659    0.000000    1.485000
    11  Cl    c     2.261190   -3.706808    7.882992    0.000000    1.485000
    12  Cl    c    -1.993014    0.175695   11.397880    0.000000    1.485000
    13  Cl    c     0.832185   -1.816965   11.390311    0.000000    1.485000
    14  Cl    c    -2.000169   -3.807260   11.404265    0.000000    1.485000
    15  Sc    c    -3.113542   -5.582375    6.448077    0.000000    3.000000
    16  Sc    c     3.244769   -1.912457    6.450590    0.000000    3.000000
    17  Cl    c    -5.416719   -1.566300    4.669892    0.000000    1.485000
    18  Cl    c     0.919516    2.088743    4.672900    0.000000    1.485000
    19  Cl    c     1.154051    1.636461   11.395215    0.000000    1.485000
    20  Sc    c     0.003555    0.001542   12.907083    0.000000    3.000000
    21  Cl    c     1.169240   -5.659442    4.922492    0.000000    1.485000
    22  Sc    c     0.002218   -3.638575   12.903948    0.000000    3.000000
    23  Cl    c    -5.445627   -1.818837   11.398259    0.000000    1.485000
    24  Sc    c    -6.423676    0.066584    6.328254    0.000000    3.000000
    25  Sc    c     0.007796    3.778008    6.330086    0.000000    3.000000
    26  Cl    c     1.151941   -5.274705   11.395247    0.000000    1.485000
    27  Sc    c     0.049339   -7.335412    6.413468    0.000000    3.000000
    28  Sc    c     3.181003   -5.527969    6.412912    0.000000    3.000000
    29  Cl    c    -5.474958    1.869669    4.883337    0.000000    1.485000
    30  Cl    c    -2.027126    3.858313    4.883824    0.000000    1.485000
    31  Cl    c    -5.140717    1.632010   11.385516    0.000000    1.485000
    32  Cl    c    -4.281534    3.783161    7.876856    0.000000    1.485000
    33  Cl    c    -7.419459   -1.666962    7.829295    0.000000    1.485000
    34  Cl    c    -1.964960   -7.185945    4.921908    0.000000    1.485000
    35  Cl    c     4.058670   -3.707724    4.922725    0.000000    1.485000
    36  Cl    c     2.007625    3.775529    7.830221    0.000000    1.485000
    37  Cl    c    -4.299273   -7.143392    7.990109    0.000000    1.485000
    38  Cl    c     5.190680   -1.665483    7.991040    0.000000    1.485000
    39  Cl    c     2.031097   -7.151907    7.929301    0.000000    1.485000
    40  Cl    c    -5.171362   -5.599315    5.026841    0.000000    1.485000
    41  Cl    c     4.286911   -0.138941    5.028084    0.000000    1.485000
    42  Sc    c    -3.151207    1.820568   12.898146    0.000000    3.000000
    43  Cl    c    -1.155621   -1.989567    1.472221    0.000000    1.485000
    44  Cl    c    -2.297254    3.635099   11.396850    0.000000    1.485000
    45  Cl    c    -5.140088   -5.270245   11.392094    0.000000    1.485000
    46  Cl    c    -0.865832   -1.818484   14.388496    0.000000    1.485000
    47  Sc    c    -3.150846   -5.455440   12.906571    0.000000    3.000000
    48  Cl    c     4.297668    0.166490   11.403631    0.000000    1.485000
    49  Cl    c    -2.295359   -7.267252   11.403282    0.000000    1.485000
    50  Cl    c     4.295890   -3.801445   11.403484    0.000000    1.485000
    51  Cl    c    -7.130945    1.848201    7.923436    0.000000    1.485000
    52  Cl    c    -1.181820    5.282812    7.923631    0.000000    1.485000
    53  Cl    c    -3.982721   -0.004374    1.479794    0.000000    1.485000
    54  Cl    c    -1.145347    1.658633   14.387774    0.000000    1.485000
    55  Cl    c    -1.145754    1.982314    1.470332    0.000000    1.485000
    56  Cl    c    -4.290247   -3.456018    1.475517    0.000000    1.485000
    57  Sc    c    -6.299117    0.000264   12.898356    0.000000    3.000000
    58  Cl    c     1.988053   -3.449051    1.494909    0.000000    1.485000
    59  Cl    c    -7.447132   -5.598000    7.960961    0.000000    1.485000
    60  Cl    c    -4.284760    0.152006   14.380356    0.000000    1.485000
    61  Cl    c     5.425040    1.832708    7.961595    0.000000    1.485000
    62  Cl    c     2.288410    0.001861    1.477515    0.000000    1.485000
    63  Sc    c    -6.299530   -3.636655   12.900671    0.000000    3.000000
    64  Sc    c     3.154445    1.819155   12.900398    0.000000    3.000000
    65  Cl    c     2.012733    0.157652   14.388918    0.000000    1.485000
    66  Cl    c    -0.856909   -5.448559    1.481353    0.000000    1.485000
    67  Cl    c    -0.856180   -9.111297    7.921637    0.000000    1.485000
    68  Cl    c     5.171030   -5.631203    7.922149    0.000000    1.485000
    69  Cl    c    -1.143814   -5.289424   14.394540    0.000000    1.485000
    70  Sc    c    -6.313600    3.681129    6.414103    0.000000    3.000000
    71  Sc    c    -3.177127    5.491218    6.413222    0.000000    3.000000
    72  Cl    c    -4.288133   -3.786540   14.386442    0.000000    1.485000
    73  Cl    c     2.012665   -3.787230   14.385524    0.000000    1.485000
    74  Sc    c     3.152146   -5.454332   12.900160    0.000000    3.000000
    75  Sc    c    -6.318452   -7.286487    6.497748    0.000000    3.000000
    76  Sc    c     6.322651    0.011594    6.497355    0.000000    3.000000
    77  Cl    c    -8.458079   -0.130333    4.899938    0.000000    1.485000
    78  Cl    c     1.194712    5.440459    4.899940    0.000000    1.485000
    79  Sc    c    -3.149338   -1.817488   -0.040576    0.000000    3.000000
    80  Cl    c    -8.296850    0.173327   11.397454    0.000000    1.485000
    81  Cl    c     3.996377    3.636048   11.395536    0.000000    1.485000
    82  Cl    c    -8.594698   -3.653955    4.948390    0.000000    1.485000
    83  Sc    c     0.002636   -3.639272   -0.022608    0.000000    3.000000
    84  Cl    c     4.315719    3.798717    4.948728    0.000000    1.485000
    85  Cl    c    -8.298173   -3.806598   11.401141    0.000000    1.485000
    86  Cl    c     0.890839   -9.156023    4.925755    0.000000    1.485000
    87  Cl    c     4.337710   -7.167247    4.926132    0.000000    1.485000
    88  Cl    c     1.148404    5.616422   11.402436    0.000000    1.485000
    89  Sc    c    -9.495619   -1.840806    6.421881    0.000000    3.000000
    90  Sc    c     3.195247    5.485962    6.421069    0.000000    3.000000
    91  Cl    c     3.999304   -7.270177   11.397780    0.000000    1.485000
    92  Cl    c    -5.168431    5.318600    4.906938    0.000000    1.485000
    93  Cl    c     1.145984   -9.248986   11.405403    0.000000    1.485000
    94  Cl    c    -4.293495    3.456991    1.487953    0.000000    1.485000
    95  Cl    c     1.991995    3.452939    1.488962    0.000000    1.485000
    96  Sc    c    -3.150548    1.821962   -0.026253    0.000000    3.000000
    97  Cl    c    -4.015743    3.635055   14.387824    0.000000    1.485000
    98  Cl    c    -7.155224   -1.816765   14.392047    0.000000    1.485000
    99  Sc    c    -3.149084    5.455654   12.899645    0.000000    3.000000
   100  Cl    c    -7.431816   -1.981962    1.483189    0.000000    1.485000
   101  Cl    c    -5.152581    5.617672   11.404772    0.000000    1.485000
   102  Cl    c     5.140629   -1.986385    1.494232    0.000000    1.485000
   103  Sc    c     3.149933   -1.818501   -0.016139    0.000000    3.000000
   104  Cl    c     7.143959   -1.818444   11.398390    0.000000    1.485000
   105  Cl    c     2.275824    3.632372   14.385503    0.000000    1.485000
   106  Cl    c    -4.014887   -7.271369   14.394587    0.000000    1.485000
   107  Cl    c    -5.421790   -9.074901    4.994823    0.000000    1.485000
   108  Cl    c     7.423736   -1.659398    4.995276    0.000000    1.485000
   109  Sc    c     6.300883   -0.002029   12.904971    0.000000    3.000000
   110  Cl    c    -4.288564   -7.427107    1.489107    0.000000    1.485000
   111  Cl    c     2.000751   -7.428830    1.489333    0.000000    1.485000
   112  Sc    c    -3.147990   -9.089868   12.902787    0.000000    3.000000
   113  Sc    c     6.299539   -3.636312   12.903405    0.000000    3.000000
   114  Sc    c    -9.454610   -5.465066    6.458745    0.000000    3.000000
   115  Sc    c     6.313469    3.638318    6.460084    0.000000    3.000000
   116  Cl    c     5.423512   -1.818829   14.389140    0.000000    1.485000
   117  Cl    c     2.276436   -7.267156   14.387334    0.000000    1.485000
   118  Cl    c    -5.152626   -9.248875   11.409083    0.000000    1.485000
   119  Cl    c    -7.447863    5.309578    7.932420    0.000000    1.485000
   120  Cl    c    -4.020415    7.286858    7.932666    0.000000    1.485000
   121  Cl    c   -10.291152   -3.643764    7.961835    0.000000    1.485000
   122  Cl    c     5.153921    5.274201    7.961879    0.000000    1.485000
   123  Cl    c    -8.330461    3.805433    4.942215    0.000000    1.485000
   124  Cl    c    -2.276381    7.301019    4.942621    0.000000    1.485000
   125  Cl    c    -1.995828    7.092316   11.393626    0.000000    1.485000
   126  Sc    c     0.003314  -10.949025    6.442480    0.000000    3.000000
   127  Cl    c    -8.288855   -7.104877    4.966563    0.000000    1.485000
   128  Sc    c     6.333708   -7.294349    6.443733    0.000000    3.000000
   129  Cl    c     7.150374    1.809455    4.966906    0.000000    1.485000
   130  Cl    c   -10.583066   -0.172966    7.937736    0.000000    1.485000
   131  Cl    c     2.294392    7.260960    7.937693    0.000000    1.485000
   132  Cl    c    -0.857892    5.443108    1.483751    0.000000    1.485000
   133  Sc    c     0.002438    3.638117   -0.024921    0.000000    3.000000
   134  Cl    c    -7.137135   -5.449029    1.495349    0.000000    1.485000
   135  Cl    c    -7.163220   -9.110097    7.983042    0.000000    1.485000
   136  Cl    c     8.323910   -0.168020    7.983364    0.000000    1.485000
   137  Cl    c    -2.285641    0.006717   -1.519613    0.000000    1.485000
   138  Cl    c    -1.998435   -3.474999   -1.519015    0.000000    1.485000
   139  Cl    c    -7.432307    1.662275   14.386648    0.000000    1.485000
   140  Sc    c    -6.299344   -3.637810   -0.018147    0.000000    3.000000
   141  Sc    c     3.151068    1.819639   -0.019964    0.000000    3.000000
   142  Cl    c     5.153976    1.653102   14.395649    0.000000    1.485000
   143  Cl    c    -7.433305    1.982330    1.487754    0.000000    1.485000
   144  Cl    c     1.140532   -1.973227   -1.504540    0.000000    1.485000
   145  Sc    c     3.150483    5.454159   12.902409    0.000000    3.000000
   146  Cl    c     5.144171    1.982162    1.487640    0.000000    1.485000
   147  Cl    c    -1.149517   -8.908532    1.498844    0.000000    1.485000
   148  Cl    c    -1.138285    5.601152   14.384609    0.000000    1.485000
   149  Cl    c    -8.586436    3.636176   11.407275    0.000000    1.485000
   150  Cl    c    -7.434463   -5.295257   14.391331    0.000000    1.485000
   151  Sc    c     0.001288   -7.274405   -0.011490    0.000000    3.000000
   152  Cl    c     5.150870   -5.286613   14.397380    0.000000    1.485000
   153  Cl    c    -1.996509  -10.728167   11.398285    0.000000    1.485000
   154  Cl    c     7.441013    1.650655   11.407524    0.000000    1.485000
   155  Cl    c    -2.006338  -11.074648    4.954236    0.000000    1.485000
   156  Cl    c     7.446410   -5.617073    4.954341    0.000000    1.485000
   157  Cl    c    -4.282147  -11.063497    7.950668    0.000000    1.485000
   158  Cl    c     8.575604   -3.641019    7.950728    0.000000    1.485000
   159  Cl    c     5.430783   -5.451301    1.491214    0.000000    1.485000
   160  Cl    c     2.002909  -11.070711    7.943665    0.000000    1.485000
   161  Cl    c     5.439335   -9.087777    7.943785    0.000000    1.485000
   162  Cl    c    -8.585722   -7.268673   11.408208    0.000000    1.485000
   163  Sc    c     3.150018   -9.088534   12.902152    0.000000    3.000000
   164  Cl    c     7.441715   -5.290455   11.409724    0.000000    1.485000
   165  Cl    c    -1.138478   -9.236304   14.389447    0.000000    1.485000
   166  Cl    c    -2.291926    0.000840   17.863406    0.000000    1.485000
   167  Cl    c    -2.000608   -3.466138   17.862908    0.000000    1.485000
   168  Cl    c    -5.162294   -1.981152   -1.515794    0.000000    1.485000
   169  Cl    c     1.145483   -1.984186   17.863961    0.000000    1.485000
   170  Sc    c    -9.446686    1.818790   12.902507    0.000000    3.000000
   171  Sc    c     0.001091    7.267944   12.899796    0.000000    3.000000
   172  Cl    c     1.142313    1.974086   -1.508722    0.000000    1.485000
   173  Cl    c     0.868118   -5.458298   -1.505623    0.000000    1.485000
   174  Sc    c    -9.447187   -5.453621   12.905165    0.000000    3.000000
   175  Sc    c     0.001491  -10.901869   12.903068    0.000000    3.000000
   176  Cl    c   -11.511050   -1.675763    4.954889    0.000000    1.485000
   177  Cl    c     4.059784    7.314717    4.954953    0.000000    1.485000
   178  Sc    c    -6.294447  -10.912057    6.466985    0.000000    3.000000
   179  Sc    c     9.450630   -1.821744    6.468191    0.000000    3.000000
   180  Cl    c    -2.003496    3.474418   -1.514651    0.000000    1.485000
   181  Cl    c    -5.148108   -1.984936   17.863766    0.000000    1.485000
   182  Sc    c    -6.298245    3.639838   -0.010256    0.000000    3.000000
   183  Cl    c    -5.163005    1.976809   -1.504212    0.000000    1.485000
   184  Cl    c     4.007932   -0.001534   -1.508724    0.000000    1.485000
   185  Cl    c     1.145115    1.982487   17.865411    0.000000    1.485000
   186  Cl    c   -10.582951    3.791830    7.942022    0.000000    1.485000
   187  Cl    c    -1.138366    9.244729    7.942053    0.000000    1.485000
   188  Cl    c     0.854431   -5.450150   17.863067    0.000000    1.485000
   189  Cl    c     4.296287    7.103849   11.406433    0.000000    1.485000
   190  Cl    c   -10.590890   -7.119379    7.951433    0.000000    1.485000
   191  Cl    c     8.315120    3.795859    7.951482    0.000000    1.485000
   192  Cl    c    -1.154035  -12.569581    7.955729    0.000000    1.485000
   193  Cl    c     8.316665   -7.101888    7.955728    0.000000    1.485000
   194  Sc    c    -6.293649   -7.271946   -0.006814    0.000000    3.000000
   195  Sc    c    -9.466525    5.462096    6.447580    0.000000    3.000000
   196  Sc    c    -3.143854    9.112300    6.448761    0.000000    3.000000
   197  Cl    c    -5.425701   -5.455357   -1.500479    0.000000    1.485000
   198  Cl    c     4.289701   -3.482340   -1.496552    0.000000    1.485000
   199  Sc    c    -3.147886   -9.086811   -0.004339    0.000000    3.000000
   200  Sc    c     6.296824   -3.635857   -0.001843    0.000000    3.000000
   201  Cl    c    -2.008901   -7.426338   -1.496662    0.000000    1.485000
   202  Cl    c   -11.728405   -1.816381   11.412911    0.000000    1.485000
   203  Cl    c     4.296289  -10.738623   11.407287    0.000000    1.485000
   204  Cl    c    -2.000329    3.463780   17.862109    0.000000    1.485000
   205  Cl    c    -7.145625    5.452239    1.496268    0.000000    1.485000
   206  Cl    c   -10.284709    0.000589    1.500747    0.000000    1.485000
   207  Cl    c     4.287389  -11.060566    4.965313    0.000000    1.485000
   208  Cl    c    -5.146437    1.982279   17.861816    0.000000    1.485000
   209  Cl    c    -4.289434    7.106077   14.396196    0.000000    1.485000
   210  Cl    c     2.000703    7.100138   14.398269    0.000000    1.485000
   211  Cl    c   -11.446932    1.646540   11.405161    0.000000    1.485000
   212  Cl    c     3.999142    0.000567   17.861454    0.000000    1.485000
   213  Sc    c    -3.152694  -12.725799    6.452258    0.000000    3.000000
   214  Sc    c     9.450363   -5.449430    6.451114    0.000000    3.000000
   215  Cl    c   -11.451980   -5.617050    4.960063    0.000000    1.485000
   216  Cl    c     7.442965    5.291553    4.960050    0.000000    1.485000
   217  Sc    c    -6.297656    7.269278   12.906165    0.000000    3.000000
   218  Sc    c    -9.443209   -1.815049   -0.006658    0.000000    3.000000
   219  Cl    c     0.858391    9.085446   11.404602    0.000000    1.485000
   220  Cl    c   -11.445435   -5.280325   11.404947    0.000000    1.485000
   221  Cl    c   -11.723712    1.814288    4.967880    0.000000    1.485000
   222  Cl    c     1.144569    9.242888    4.967859    0.000000    1.485000
   223  Cl    c    -5.436847   -5.447588   17.862461    0.000000    1.485000
   224  Cl    c     4.291326   -3.465398   17.860930    0.000000    1.485000
   225  Cl    c    -4.290389    7.426834    1.492083    0.000000    1.485000
   226  Cl    c     2.002891    7.425885    1.492671    0.000000    1.485000
   227  Cl    c   -10.579841   -3.466629    1.494916    0.000000    1.485000
   228  Cl    c     1.155266  -12.593062    4.951743    0.000000    1.485000
   229  Cl    c     7.181364   -9.113057    4.951717    0.000000    1.485000
   230  Cl    c    -7.437367   -8.913239    1.499509    0.000000    1.485000
   231  Cl    c     8.292187   -3.462824    1.502010    0.000000    1.485000
   232  Cl    c    -2.000922   -7.431641   17.863212    0.000000    1.485000
   233  Cl    c     5.145575   -8.910737    1.500634    0.000000    1.485000
   234  Cl    c    -7.432416    5.605571   14.395675    0.000000    1.485000
   235  Cl    c   -10.578374    0.156120   14.393727    0.000000    1.485000
   236  Cl    c     5.428794    5.447013    1.492337    0.000000    1.485000
   237  Cl    c     5.154254    5.607663   14.394766    0.000000    1.485000
   238  Cl    c    -4.004533  -10.898400    1.497305    0.000000    1.485000
   239  Cl    c     8.301642    0.159981   14.399488    0.000000    1.485000
   240  Sc    c   -12.604199    0.006593    6.461495    0.000000    3.000000
   241  Cl    c    -4.290039  -10.738956   14.399892    0.000000    1.485000
   242  Sc    c     3.149576    9.101919    6.462604    0.000000    3.000000
   243  Sc    c    -3.146673   -1.816994   19.362338    0.000000    3.000000
   244  Cl    c     2.001865  -10.733470   14.400862    0.000000    1.485000
   245  Cl    c   -10.580148   -3.789851   14.394553    0.000000    1.485000
   246  Sc    c     3.149648   -9.086101   -0.003001    0.000000    3.000000
   247  Cl    c     8.300042   -3.794172   14.399144    0.000000    1.485000
   248  Sc    c     0.000242   -3.634003   19.363430    0.000000    3.000000
   249  Sc    c    -6.296619  -10.902961   12.907977    0.000000    3.000000
   250  Cl    c     8.574443   -0.000667    1.493426    0.000000    1.485000
   251  Cl    c     7.434914    5.613623   11.411523    0.000000    1.485000
   252  Cl    c     2.286043  -10.898241    1.494990    0.000000    1.485000
   253  Cl    c    -8.296438    7.096238   11.405658    0.000000    1.485000
   254  Cl    c     0.859070  -12.717578   11.406068    0.000000    1.485000
   255  Cl    c    -7.433977   -9.239727   14.396481    0.000000    1.485000
   256  Cl    c     5.153212   -9.241424   14.395951    0.000000    1.485000
   257  Cl    c     0.867370    5.460081   -1.504850    0.000000    1.485000
   258  Cl    c    -8.305507   -3.471019   -1.503657    0.000000    1.485000
   259  Sc    c    -9.442091    1.818721   -0.004848    0.000000    3.000000
   260  Cl    c    -8.585435    7.267018    4.952933    0.000000    1.485000
   261  Cl    c    -5.146731    9.251311    4.952982    0.000000    1.485000
   262  Sc    c     0.000241    7.271645   -0.004595    0.000000    3.000000
   263  Sc    c    -9.443883    5.452032   12.909361    0.000000    3.000000
   264  Sc    c     3.156246  -12.726690    6.456294    0.000000    3.000000
   265  Sc    c     6.296626  -10.913640    6.455123    0.000000    3.000000
   266  Cl    c     4.293103    3.479961   -1.502624    0.000000    1.485000
   267  Cl    c    -5.150451  -12.544262    4.951884    0.000000    1.485000
   268  Cl    c    10.291994   -3.627702    4.951859    0.000000    1.485000
   269  Cl    c     7.432576   -9.244355   11.413706    0.000000    1.485000
   270  Cl    c    -5.434655    9.082493   11.409089    0.000000    1.485000
   271  Sc    c     6.297815    3.635881   -0.005150    0.000000    3.000000
   272  Cl    c    -8.571771    0.001638   -1.494510    0.000000    1.485000
   273  Cl    c    -8.294258  -10.730595   11.405439    0.000000    1.485000
   274  Cl    c     1.146137   -8.927807   -1.500334    0.000000    1.485000
   275  Sc    c    -3.147085    1.817497   19.363990    0.000000    3.000000
   276  Cl    c    -8.296942  -11.049763    4.970299    0.000000    1.485000
   277  Cl    c    10.570202   -0.156738    4.970333    0.000000    1.485000
   278  Sc    c    -9.443392   -9.086773   12.907511    0.000000    3.000000
   279  Sc    c     9.444585    1.818644   12.907648    0.000000    3.000000
   280  Sc    c     6.295790   -7.269612   -0.004220    0.000000    3.000000
   281  Sc    c     3.147928   -1.816855   19.362519    0.000000    3.000000
   282  Cl    c     4.286179   -7.423856   -1.492959    0.000000    1.485000
   283  Cl    c    -1.150695    8.905237    1.505254    0.000000    1.485000
   284  Sc    c     9.445632   -5.453347   12.909547    0.000000    3.000000
   285  Cl    c   -10.299359    3.632154   14.403200    0.000000    1.485000
   286  Cl    c     0.853577    5.449087   17.859727    0.000000    1.485000
   287  Cl    c    10.580941    0.161558   11.411677    0.000000    1.485000
   288  Cl    c    -5.433827  -12.715021   11.409607    0.000000    1.485000
   289  Cl    c    -8.291214   -3.463850   17.858936    0.000000    1.485000
   290  Cl    c     4.290907    3.464085   17.860290    0.000000    1.485000
   291  Cl    c    10.579378   -3.794728   11.412706    0.000000    1.485000
   292  Cl    c   -10.582506    3.466701    1.496833    0.000000    1.485000
   293  Cl    c    -5.424808    5.455642   -1.495005    0.000000    1.485000
   294  Cl    c     8.288167    3.458484    1.504491    0.000000    1.485000
   295  Cl    c    -8.580352    0.000435   17.861650    0.000000    1.485000
   296  Cl    c    -0.867740    9.079207   14.393221    0.000000    1.485000
   297  Cl    c    -5.148682   -8.921798   -1.501098    0.000000    1.485000
   298  Cl    c    -7.426207    9.229874    7.937150    0.000000    1.485000
   299  Cl    c   -10.300927   -7.268515   14.402912    0.000000    1.485000
   300  Cl    c   -13.735223   -1.650961    7.957883    0.000000    1.485000
   301  Cl    c     1.146258   -8.913428   17.859092    0.000000    1.485000
   302  Cl    c     5.151437    9.252969    7.957695    0.000000    1.485000
   303  Sc    c   -12.592339   -0.000598   12.909329    0.000000    3.000000
   304  Cl    c    -7.439024  -12.565618    7.955284    0.000000    1.485000
   305  Cl    c    11.455788   -1.656936    7.955233    0.000000    1.485000
   306  Cl    c     5.151333  -12.555231    7.959693    0.000000    1.485000
   307  Sc    c   -12.592301   -3.633680   12.907858    0.000000    3.000000
   308  Sc    c     6.298090    7.271202   12.908174    0.000000    3.000000
   309  Sc    c   -12.596142    3.633899    6.455287    0.000000    3.000000
   310  Sc    c     0.004209   10.908742    6.454077    0.000000    3.000000
   311  Sc    c     0.000284    3.634656   19.362659    0.000000    3.000000
   312  Sc    c    -6.294796   -3.633972   19.364164    0.000000    3.000000
   313  Sc    c     3.147814    1.817284   19.363903    0.000000    3.000000
   314  Cl    c   -11.461855    5.283825    4.948739    0.000000    1.485000
   315  Cl    c    -1.992486   10.750592    4.948639    0.000000    1.485000
   316  Cl    c     7.430497   -1.972408   -1.490086    0.000000    1.485000
   317  Cl    c   -10.306706    7.273700    7.954411    0.000000    1.485000
   318  Cl    c    -4.293362   10.746327    7.954314    0.000000    1.485000
   319  Cl    c   -13.444365    1.822901    7.964371    0.000000    1.485000
   320  Cl    c     1.995935   10.738125    7.964313    0.000000    1.485000
   321  Cl    c     4.288978   -7.429939   17.862461    0.000000    1.485000
   322  Cl    c   -10.578786   -7.423402    1.492115    0.000000    1.485000
   323  Cl    c     8.293573   -7.430919    1.497186    0.000000    1.485000
   324  Sc    c   -12.598382   -7.273864    6.453985    0.000000    3.000000
   325  Sc    c     9.451741    5.456760    6.452807    0.000000    3.000000
   326  Sc    c     0.000529   -7.268766   19.362676    0.000000    3.000000
   327  Cl    c    -8.301161    3.471702   -1.501721    0.000000    1.485000
   328  Cl    c     8.565935    3.632881   14.393860    0.000000    1.485000
   329  Cl    c    -0.852765   -1.817135   -4.951132    0.000000    1.485000
   330  Cl    c    -0.866675  -12.714715   14.395231    0.000000    1.485000
   331  Sc    c     6.297596  -10.904603   12.909316    0.000000    3.000000
   332  Sc    c    -6.295614    7.273467   -0.003859    0.000000    3.000000
   333  Cl    c    -1.140829  -12.872967    1.492304    0.000000    1.485000
   334  Cl    c    -5.435332    5.450042   17.860621    0.000000    1.485000
   335  Cl    c    -1.140958   -1.975733   20.853784    0.000000    1.485000
   336  Cl    c    -5.143879   -8.910128   17.855345    0.000000    1.485000
   337  Cl    s    -1.762845   -0.579752    5.453225    0.000000   -2.485000
   338  Cl    s    -3.718397   -3.655831    7.689676    0.000000   -2.485000
   339  Cl    s     1.879338   -0.425487    7.692635    0.000000   -2.485000
   340  Cl    s    -4.397232   -0.393977    7.477993    0.000000   -2.485000
   341  Cl    s    -0.606964    1.793595    7.480687    0.000000   -2.485000
   342  Cl    s    -2.523796   -3.743153    5.072138    0.000000   -2.485000
   343  Cl    s     1.355911   -1.504469    5.075619    0.000000   -2.485000
   344  Cl    s    -1.151265   -5.745469    7.652360    0.000000   -2.485000
   345  Cl    s     2.404956   -3.693898    7.653669    0.000000   -2.485000
   346  Cl    s     0.700000   -1.815442   11.613595    0.000000   -2.485000
   347  Cl    s    -1.926151    0.287792   11.616886    0.000000   -2.485000
   348  Cl    s    -1.932710   -3.919511   11.626054    0.000000   -2.485000
   349  Cl    s    -5.302147   -1.489720    4.927300    0.000000   -2.485000
   350  Cl    s     0.795524    2.027596    4.930371    0.000000   -2.485000
   351  Cl    s     1.217587    1.519351   11.621176    0.000000   -2.485000
   352  Cl    s     1.236342   -5.775377    5.155540    0.000000   -2.485000
   353  Cl    s     1.215566   -5.156573   11.624199    0.000000   -2.485000
   354  Cl    s    -5.576583   -1.818212   11.623210    0.000000   -2.485000
   355  Cl    s    -1.904517   -7.059339    5.162712    0.000000   -2.485000
   356  Cl    s     3.918869   -3.697184    5.163547    0.000000   -2.485000
   357  Cl    s     1.962288   -7.032929    7.688251    0.000000   -2.485000
   358  Cl    s    -5.611084    1.855252    5.117373    0.000000   -2.485000
   359  Cl    s    -1.946905    3.969162    5.117848    0.000000   -2.485000
   360  Cl    s    -4.354202   -7.019497    7.749184    0.000000   -2.485000
   361  Cl    s     5.110380   -1.556170    7.750142    0.000000   -2.485000
   362  Cl    s    -5.072524    1.517276   11.614607    0.000000   -2.485000
   363  Cl    s    -5.089193   -5.715747    5.255840    0.000000   -2.485000
   364  Cl    s     4.347091   -0.268160    5.257099    0.000000   -2.485000
   365  Cl    s    -0.727171   -1.817282   14.152860    0.000000   -2.485000
   366  Cl    s    -7.489840   -1.541009    7.598702    0.000000   -2.485000
   367  Cl    s     1.933421    3.899108    7.599606    0.000000   -2.485000
   368  Cl    s    -4.352164    3.905232    7.647094    0.000000   -2.485000
   369  Cl    s    -5.072594   -5.154431   11.620968    0.000000   -2.485000
   370  Cl    s    -2.430681    3.630862   11.624342    0.000000   -2.485000
   371  Cl    s    -1.222446   -2.102222    1.252307    0.000000   -2.485000
   372  Cl    s    -7.004367    1.840196    7.675373    0.000000   -2.485000
   373  Cl    s    -1.237905    5.168969    7.675608    0.000000   -2.485000
   374  Cl    s    -2.430017   -7.263352   11.631599    0.000000   -2.485000
   375  Cl    s     4.361113    0.283293   11.630504    0.000000   -2.485000
   376  Cl    s    -1.212829    1.537569   14.151576    0.000000   -2.485000
   377  Cl    s     4.360526   -3.917554   11.631167    0.000000   -2.485000
   378  Cl    s    -1.211920   -5.169227   14.158284    0.000000   -2.485000
   379  Cl    s     1.940317    0.276102   14.153523    0.000000   -2.485000
   380  Cl    s    -4.353101    0.273009   14.146003    0.000000   -2.485000
   381  Cl    s    -3.849588   -0.005879    1.256415    0.000000   -2.485000
   382  Cl    s     1.940153   -3.905957   14.151134    0.000000   -2.485000
   383  Cl    s    -4.356181   -3.907225   14.152302    0.000000   -2.485000
   384  Cl    s    -0.717794   -9.105619    7.687129    0.000000   -2.485000
   385  Cl    s     5.097263   -5.748397    7.687661    0.000000   -2.485000
   386  Cl    s     1.920217   -3.334157    1.265618    0.000000   -2.485000
   387  Cl    s    -7.508416   -5.720041    7.729201    0.000000   -2.485000
   388  Cl    s    -4.355282   -3.337801    1.252301    0.000000   -2.485000
   389  Cl    s     5.561334    1.825174    7.729820    0.000000   -2.485000
   390  Cl    s    -1.213130    2.095140    1.248739    0.000000   -2.485000
   391  Cl    s    -0.722642   -5.444675    1.254473    0.000000   -2.485000
   392  Cl    s    -8.363032   -0.245938    5.133174    0.000000   -2.485000
   393  Cl    s     1.247688    5.300812    5.133163    0.000000   -2.485000
   394  Cl    s     2.419546    0.001530    1.255106    0.000000   -2.485000
   395  Cl    s     0.752354   -9.143033    5.161947    0.000000   -2.485000
   396  Cl    s     4.395352   -7.040603    5.162415    0.000000   -2.485000
   397  Cl    s     3.861612    3.633109   11.626214    0.000000   -2.485000
   398  Cl    s    -8.226170    0.288028   11.626965    0.000000   -2.485000
   399  Cl    s    -8.728235   -3.648530    5.180652    0.000000   -2.485000
   400  Cl    s     4.377461    3.917307    5.181000    0.000000   -2.485000
   401  Cl    s    -5.098801    5.198322    5.145416    0.000000   -2.485000
   402  Cl    s    -8.227239   -3.921140   11.631070    0.000000   -2.485000
   403  Cl    s     3.864043   -7.267115   11.629036    0.000000   -2.485000
   404  Cl    s    -7.017658   -1.816449   14.155973    0.000000   -2.485000
   405  Cl    s     1.215010    5.731702   11.630825    0.000000   -2.485000
   406  Cl    s    -3.877376    3.632257   14.152632    0.000000   -2.485000
   407  Cl    s     1.924234    3.336334    1.260330    0.000000   -2.485000
   408  Cl    s    -3.876791   -7.267475   14.159697    0.000000   -2.485000
   409  Cl    s    -4.357930    3.339071    1.258224    0.000000   -2.485000
   410  Cl    s     1.213454   -9.364646   11.635088    0.000000   -2.485000
   411  Cl    s     2.414301    3.630143   14.151914    0.000000   -2.485000
   412  Cl    s     7.008613   -1.817986   11.629712    0.000000   -2.485000
   413  Cl    s    -5.559257   -9.070101    5.227057    0.000000   -2.485000
   414  Cl    s     7.487974   -1.537797    5.227529    0.000000   -2.485000
   415  Cl    s     5.070527   -2.101668    1.264666    0.000000   -2.485000
   416  Cl    s    -5.082419    5.732535   11.634178    0.000000   -2.485000
   417  Cl    s     2.414483   -7.264165   14.153967    0.000000   -2.485000
   418  Cl    s    -7.496188   -2.099358    1.256783    0.000000   -2.485000
   419  Cl    s     5.561459   -1.818044   14.156101    0.000000   -2.485000
   420  Cl    s   -10.157726   -3.642213    7.721465    0.000000   -2.485000
   421  Cl    s     5.086125    5.159206    7.721602    0.000000   -2.485000
   422  Cl    s    -8.221149   -6.987160    5.204840    0.000000   -2.485000
   423  Cl    s     7.014623    1.809414    5.205256    0.000000   -2.485000
   424  Cl    s    -7.510051    5.186752    7.696355    0.000000   -2.485000
   425  Cl    s    -3.882937    7.279756    7.696653    0.000000   -2.485000
   426  Cl    s    -1.931832   -3.353873   -1.282900    0.000000   -2.485000
   427  Cl    s    -8.253044    3.921017    5.175789    0.000000   -2.485000
   428  Cl    s    -2.415197    7.291345    5.176153    0.000000   -2.485000
   429  Cl    s    -2.423637    0.004209   -1.284014    0.000000   -2.485000
   430  Cl    s     5.083573    1.534920   14.160181    0.000000   -2.485000
   431  Cl    s     1.930949   -7.544439    1.260053    0.000000   -2.485000
   432  Cl    s    -1.929854    6.974636   11.624975    0.000000   -2.485000
   433  Cl    s    -4.356040   -7.543194    1.261168    0.000000   -2.485000
   434  Cl    s    -5.082551   -9.363849   11.638558    0.000000   -2.485000
   435  Cl    s    -7.498866    1.540865   14.152746    0.000000   -2.485000
   436  Cl    s     1.208145   -2.093655   -1.269971    0.000000   -2.485000
   437  Cl    s    -7.025359   -9.099514    7.747210    0.000000   -2.485000
   438  Cl    s     8.246092   -0.282327    7.747602    0.000000   -2.485000
   439  Cl    s     5.081214   -5.168493   14.161854    0.000000   -2.485000
   440  Cl    s   -10.649426   -0.292887    7.703882    0.000000   -2.485000
   441  Cl    s     2.431511    7.258865    7.703886    0.000000   -2.485000
   442  Cl    s    -7.501026   -5.174138   14.157103    0.000000   -2.485000
   443  Cl    s    -7.002546   -5.446590    1.263904    0.000000   -2.485000
   444  Cl    s    -1.208723    5.719999   14.151408    0.000000   -2.485000
   445  Cl    s    -0.722229    5.440403    1.254918    0.000000   -2.485000
   446  Cl    s    -1.216118   -8.790816    1.266985    0.000000   -2.485000
   447  Cl    s    -1.930798  -10.610060   11.630475    0.000000   -2.485000
   448  Cl    s     5.073733    2.097758    1.257569    0.000000   -2.485000
   449  Cl    s    -7.499180    2.098858    1.259764    0.000000   -2.485000
   450  Cl    s    -8.720285    3.633815   11.637028    0.000000   -2.485000
   451  Cl    s     7.505830    1.532104   11.637559    0.000000   -2.485000
   452  Cl    s    -1.936577  -11.191725    5.187161    0.000000   -2.485000
   453  Cl    s     7.513311   -5.735844    5.187263    0.000000   -2.485000
   454  Cl    s    -1.208811   -9.354783   14.156476    0.000000   -2.485000
   455  Cl    s    -5.088717   -2.098591   -1.280524    0.000000   -2.485000
   456  Cl    s     1.933437  -11.188955    7.710161    0.000000   -2.485000
   457  Cl    s     5.576416   -9.086322    7.710263    0.000000   -2.485000
   458  Cl    s    -4.352488  -11.179866    7.718062    0.000000   -2.485000
   459  Cl    s     8.711526   -3.637854    7.718125    0.000000   -2.485000
   460  Cl    s     7.506458   -5.171002   11.640459    0.000000   -2.485000
   461  Cl    s     0.729471   -5.454150   -1.270737    0.000000   -2.485000
   462  Cl    s    -8.719879   -7.266676   11.638111    0.000000   -2.485000
   463  Cl    s     1.210097    2.093815   -1.274486    0.000000   -2.485000
   464  Cl    s     5.565491   -5.448362    1.261955    0.000000   -2.485000
   465  Cl    s    -1.933289   -3.348900   18.093043    0.000000   -2.485000
   466  Cl    s    -2.426633    0.000457   18.093307    0.000000   -2.485000
   467  Cl    s    -1.935416    3.353856   -1.278919    0.000000   -2.485000
   468  Cl    s     1.212639   -2.101013   18.093796    0.000000   -2.485000
   469  Cl    s   -11.429140   -1.558276    5.188441    0.000000   -2.485000
   470  Cl    s     3.917095    7.302175    5.188481    0.000000   -2.485000
   471  Cl    s     3.869753   -0.001582   -1.272989    0.000000   -2.485000
   472  Cl    s    -5.089555    2.094301   -1.269997    0.000000   -2.485000
   473  Cl    s    -1.219020  -12.449377    7.718606    0.000000   -2.485000
   474  Cl    s     8.244714   -6.985689    7.718572    0.000000   -2.485000
   475  Cl    s     4.354635   -3.360085   -1.262407    0.000000   -2.485000
   476  Cl    s    -5.563192   -5.451869   -1.266411    0.000000   -2.485000
   477  Cl    s     4.361442    6.984660   11.637461    0.000000   -2.485000
   478  Cl    s   -10.653900   -6.997086    7.717262    0.000000   -2.485000
   479  Cl    s     8.240362    3.911352    7.717327    0.000000   -2.485000
   480  Cl    s    -1.938490   -7.543830   -1.263019    0.000000   -2.485000
   481  Cl    s    -5.079792   -2.101288   18.093992    0.000000   -2.485000
   482  Cl    s   -10.649891    3.911166    7.709547    0.000000   -2.485000
   483  Cl    s    -1.208569    9.362131    7.709649    0.000000   -2.485000
   484  Cl    s     0.719388   -5.449226   18.093497    0.000000   -2.485000
   485  Cl    s     1.933026    6.981230   14.162660    0.000000   -2.485000
   486  Cl    s     1.212249    2.099494   18.095179    0.000000   -2.485000
   487  Cl    s    -4.356431    6.985770   14.161295    0.000000   -2.485000
   488  Cl    s     4.361546  -10.619247   11.638960    0.000000   -2.485000
   489  Cl    s   -10.149419   -0.000060    1.268392    0.000000   -2.485000
   490  Cl    s    -7.010219    5.449947    1.264601    0.000000   -2.485000
   491  Cl    s   -11.376582    1.530284   11.636878    0.000000   -2.485000
   492  Cl    s   -11.379191   -5.733366    5.194376    0.000000   -2.485000
   493  Cl    s   -11.863032   -1.816332   11.642827    0.000000   -2.485000
   494  Cl    s     7.507679    5.170585    5.194330    0.000000   -2.485000
   495  Cl    s     4.355938  -11.178921    5.197424    0.000000   -2.485000
   496  Cl    s    -1.933117    3.346816   18.092714    0.000000   -2.485000
   497  Cl    s     1.218750  -12.468707    5.186655    0.000000   -2.485000
   498  Cl    s     7.041973   -9.106236    5.186636    0.000000   -2.485000
   499  Cl    s     1.933914  -10.614863   14.165551    0.000000   -2.485000
   500  Cl    s    -4.357209  -10.618949   14.165096    0.000000   -2.485000
   501  Cl    s   -11.375664   -5.163736   11.636859    0.000000   -2.485000
   502  Cl    s     8.230230    0.277625   14.165003    0.000000   -2.485000
   503  Cl    s     3.864306    0.000213   18.092357    0.000000   -2.485000
   504  Cl    s     0.722594    9.082336   11.635865    0.000000   -2.485000
   505  Cl    s     5.083176    5.725402   14.161205    0.000000   -2.485000
   506  Cl    s     8.229095   -3.911900   14.164945    0.000000   -2.485000
   507  Cl    s   -10.645697    0.276147   14.160566    0.000000   -2.485000
   508  Cl    s    -5.079002    2.099394   18.092183    0.000000   -2.485000
   509  Cl    s   -11.859842    1.813138    5.200036    0.000000   -2.485000
   510  Cl    s     1.213329    9.360371    5.199950    0.000000   -2.485000
   511  Cl    s    -7.500775    5.724636   14.162541    0.000000   -2.485000
   512  Cl    s     5.076955   -8.793718    1.267763    0.000000   -2.485000
   513  Cl    s   -10.647250   -3.909770   14.161518    0.000000   -2.485000
   514  Cl    s     8.222466   -3.346342    1.269574    0.000000   -2.485000
   515  Cl    s    -7.502966   -8.794799    1.267421    0.000000   -2.485000
   516  Cl    s    -8.233049   -3.352781   -1.268195    0.000000   -2.485000
   517  Cl    s   -10.645424   -3.348135    1.264196    0.000000   -2.485000
   518  Cl    s    -3.868856  -10.895432    1.265549    0.000000   -2.485000
   519  Cl    s     0.729000    5.454705   -1.269871    0.000000   -2.485000
   520  Cl    s     4.358499   -3.348220   18.091746    0.000000   -2.485000
   521  Cl    s     1.933355    7.541911    1.262526    0.000000   -2.485000
   522  Cl    s    -8.227679    6.978888   11.637931    0.000000   -2.485000
   523  Cl    s    -5.571892   -5.447582   18.092876    0.000000   -2.485000
   524  Cl    s    -4.357874    7.543561    1.262315    0.000000   -2.485000
   525  Cl    s     5.082670   -9.359172   14.162623    0.000000   -2.485000
   526  Cl    s     4.357983    3.357946   -1.267894    0.000000   -2.485000
   527  Cl    s     5.564044    5.445825    1.262227    0.000000   -2.485000
   528  Cl    s    -7.502071   -9.358626   14.163504    0.000000   -2.485000
   529  Cl    s    -5.082667  -12.426458    5.188216    0.000000   -2.485000
   530  Cl    s    10.156093   -3.627861    5.188199    0.000000   -2.485000
   531  Cl    s    -1.933257   -7.548514   18.093550    0.000000   -2.485000
   532  Cl    s     0.723011  -12.714999   11.637792    0.000000   -2.485000
   533  Cl    s     1.211923   -8.806248   -1.265298    0.000000   -2.485000
   534  Cl    s     2.421552  -10.895681    1.263785    0.000000   -2.485000
   535  Cl    s     7.501808    5.730727   11.641907    0.000000   -2.485000
   536  Cl    s    -8.721127    7.264078    5.186693    0.000000   -2.485000
   537  Cl    s    -5.076620    9.367572    5.186752    0.000000   -2.485000
   538  Cl    s    -8.708519    0.000734   -1.260865    0.000000   -2.485000
   539  Cl    s     8.709457   -0.000753    1.263418    0.000000   -2.485000
   540  Cl    s    -8.226151  -10.612790   11.637923    0.000000   -2.485000
   541  Cl    s   -10.162272    3.631246   14.167755    0.000000   -2.485000
   542  Cl    s    -5.569989    9.080208   11.640324    0.000000   -2.485000
   543  Cl    s    -8.225623  -11.167559    5.202640    0.000000   -2.485000
   544  Cl    s    10.636943   -0.277235    5.202721    0.000000   -2.485000
   545  Cl    s     7.500508   -9.361580   11.644200    0.000000   -2.485000
   546  Cl    s     4.354062   -7.542466   -1.259649    0.000000   -2.485000
   547  Cl    s    -5.080400   -8.801647   -1.265120    0.000000   -2.485000
   548  Cl    s   -10.163712   -7.266628   14.167745    0.000000   -2.485000
   549  Cl    s    -1.216609    8.787629    1.271900    0.000000   -2.485000
   550  Cl    s    -5.562360    5.451881   -1.261338    0.000000   -2.485000
   551  Cl    s    -0.729902    9.076848   14.159200    0.000000   -2.485000
   552  Cl    s     5.082650  -12.436637    7.723698    0.000000   -2.485000
   553  Cl    s    -5.569559  -12.712895   11.641085    0.000000   -2.485000
   554  Cl    s     8.219125    3.342366    1.271318    0.000000   -2.485000
   555  Cl    s    -8.223846   -3.346923   18.090203    0.000000   -2.485000
   556  Cl    s    -7.503747  -12.442914    7.720822    0.000000   -2.485000
   557  Cl    s    11.381528   -1.539704    7.720776    0.000000   -2.485000
   558  Cl    s    10.647054    0.280014   11.642614    0.000000   -2.485000
   559  Cl    s   -11.389412    5.166473    5.184631    0.000000   -2.485000
   560  Cl    s     0.718646    5.448544   18.090816    0.000000   -2.485000
   561  Cl    s    -1.926745   10.629397    5.184517    0.000000   -2.485000
   562  Cl    s    -8.230149    3.353199   -1.266160    0.000000   -2.485000
   563  Cl    s   -10.647604    3.347947    1.265123    0.000000   -2.485000
   564  Cl    s    10.646299   -3.912803   11.643518    0.000000   -2.485000
   565  Cl    s     7.496953   -2.092715   -1.256253    0.000000   -2.485000
   566  Cl    s     4.358168    3.347018   18.091202    0.000000   -2.485000
   567  Cl    s   -13.307771    1.820652    7.727795    0.000000   -2.485000
   568  Cl    s     1.929919   10.618481    7.727742    0.000000   -2.485000
   569  Cl    s   -13.799648   -1.531551    7.723448    0.000000   -2.485000
   570  Cl    s     5.079846    9.368249    7.723327    0.000000   -2.485000
   571  Cl    s   -10.169203    7.269630    7.718302    0.000000   -2.485000
   572  Cl    s    -4.358239   10.624985    7.718232    0.000000   -2.485000
   573  Cl    s    -7.494954    9.348592    7.706032    0.000000   -2.485000
   574  Cl    s     1.213299   -8.796196   18.090678    0.000000   -2.485000
   575  Cl    s    -1.209697   -2.094813   20.619563    0.000000   -2.485000
   576  Cl    s    -0.729141  -12.711918   14.161462    0.000000   -2.485000
   577  Cl    s    -8.715417    0.000296   18.091774    0.000000   -2.485000
   578  Cl    s     8.703629    3.631644   14.161143    0.000000   -2.485000
   579  Cl    s     8.223566   -7.547074    1.265271    0.000000   -2.485000
   580  Cl    s   -10.645036   -7.541333    1.262254    0.000000   -2.485000
   581  Cl    s     4.356640   -7.546959   18.092725    0.000000   -2.485000
   582  Cl    s    -5.076728   -8.793224   18.087140    0.000000   -2.485000
   583  Cl    s    -0.718675   -1.816771   -5.180672    0.000000   -2.485000
   584  Cl    s    -1.209989  -12.989487    1.262064    0.000000   -2.485000
   585  Cl    s    -5.570361    5.448826   18.090997    0.000000   -2.485000
--------------------------------------------------------------------------------

  Final coordinates of symmetry reduced region 1 (relative to defect centre):

--------------------------------------------------------------------------------
   No.  Atomic        x           y           z          Charge
        Label       (Angs)      (Angs)      (Angs)         (e) 
--------------------------------------------------------------------------------
     1  Sc    c    -2.326506   -0.383711   -1.732948    3.000000
     2  Sc    c     1.501091    1.824586   -1.729338    3.000000
     3  Cl    c    -0.648810    1.131054   -2.623677    1.485000
     4  Cl    c    -3.165612    1.362941   -0.176539    1.485000
     5  Cl    c     0.408119    3.425499   -0.173761    1.485000
     6  Cl    c    -2.640978   -2.050907    0.073736    1.485000
     7  Cl    c     3.103149    1.264146    0.076676    1.485000
     8  Cl    c    -1.204553   -2.155477   -3.057969    1.485000
     9  Cl    c     2.473879   -0.033353   -3.054366    1.485000
    10  Cl    c     0.096368   -4.004739   -0.009576    1.485000
    11  Cl    c     3.426142   -2.084391   -0.008243    1.485000
    12  Cl    c    -0.828062    1.798112    3.506645    1.485000
    13  Cl    c     1.997137   -0.194548    3.499076    1.485000
    14  Cl    c    -0.835217   -2.184843    3.513030    1.485000
    15  Sc    c    -1.948590   -3.959957   -1.443158    3.000000
    16  Sc    c     4.409721   -0.290040   -1.440645    3.000000
    17  Cl    c    -4.251767    0.056117   -3.221343    1.485000
    18  Cl    c     2.084468    3.711160   -3.218335    1.485000
    19  Cl    c     2.319003    3.258878    3.503980    1.485000
    20  Sc    c     1.168507    1.623959    5.015848    3.000000
    21  Cl    c     2.334192   -4.037025   -2.968744    1.485000
    22  Sc    c     1.167170   -2.016158    5.012713    3.000000
    23  Cl    c    -4.280675   -0.196420    3.507024    1.485000
    24  Sc    c    -5.258724    1.689001   -1.562981    3.000000
    25  Sc    c     1.172748    5.400425   -1.561149    3.000000
    26  Cl    c     2.316893   -3.652288    3.504012    1.485000
    27  Sc    c     1.214291   -5.712994   -1.477767    3.000000
    28  Sc    c     4.345955   -3.905552   -1.478323    3.000000
    29  Cl    c    -4.310006    3.492087   -3.007898    1.485000
    30  Cl    c    -0.862174    5.480730   -3.007411    1.485000
    31  Cl    c    -3.975764    3.254427    3.494281    1.485000
    32  Cl    c    -3.116582    5.405578   -0.014379    1.485000
    33  Cl    c    -6.254507   -0.044544   -0.061940    1.485000
    34  Cl    c    -0.800008   -5.563528   -2.969327    1.485000
    35  Cl    c     5.223623   -2.085307   -2.968510    1.485000
    36  Cl    c     3.172577    5.397946   -0.061014    1.485000
    37  Cl    c    -3.134320   -5.520975    0.098874    1.485000
    38  Cl    c     6.355632   -0.043066    0.099805    1.485000
    39  Cl    c     3.196050   -5.529490    0.038066    1.485000
    40  Cl    c    -4.006410   -3.976898   -2.864394    1.485000
    41  Cl    c     5.451864    1.483476   -2.863151    1.485000
    42  Sc    c    -1.986255    3.442985    5.006911    3.000000
    43  Cl    c     0.009332   -0.367149   -6.419014    1.485000
    44  Cl    c    -1.132302    5.257516    3.505615    1.485000
    45  Cl    c    -3.975136   -3.647828    3.500859    1.485000
    46  Cl    c     0.299120   -0.196067    6.497261    1.485000
    47  Sc    c    -1.985894   -3.833023    5.015336    3.000000
    48  Cl    c     5.462621    1.788907    3.512396    1.485000
    49  Cl    c    -1.130407   -5.644835    3.512047    1.485000
    50  Cl    c     5.460842   -2.179028    3.512249    1.485000
    51  Cl    c    -5.965993    3.470619    0.032201    1.485000
    52  Cl    c    -0.016868    6.905229    0.032396    1.485000
    53  Cl    c    -2.817769    1.618043   -6.411441    1.485000
    54  Cl    c     0.019605    3.281050    6.496539    1.485000
    55  Cl    c     0.019198    3.604731   -6.420903    1.485000
    56  Cl    c    -3.125295   -1.833600   -6.415718    1.485000
    57  Sc    c    -5.134165    1.622681    5.007121    3.000000
    58  Cl    c     3.153006   -1.826633   -6.396326    1.485000
    59  Cl    c    -6.282180   -3.975583    0.069726    1.485000
    60  Cl    c    -3.119808    1.774423    6.489121    1.485000
    61  Cl    c     6.589993    3.455125    0.070360    1.485000
    62  Cl    c     3.453362    1.624279   -6.413720    1.485000
    63  Sc    c    -5.134578   -2.014237    5.009436    3.000000
    64  Sc    c     4.319397    3.441572    5.009163    3.000000
    65  Cl    c     3.177686    1.780069    6.497683    1.485000
    66  Cl    c     0.308043   -3.826142   -6.409882    1.485000
[...]
    505 z         14.168915     14.161205    -0.007710    Cartesian   -0.05
    506 x          8.228881      8.229095     0.000213    Cartesian    0.00
    506 y         -3.914802     -3.911900     0.002902    Cartesian   -0.07
    506 z         14.168915     14.164945    -0.003970    Cartesian   -0.03
    507 x        -10.651577    -10.645697     0.005880    Cartesian   -0.06
    507 y          0.281430      0.276147    -0.005283    Cartesian   -1.88
    507 z         14.168915     14.160566    -0.008349    Cartesian   -0.06
    508 x         -5.082063     -5.079002     0.003061    Cartesian   -0.06
    508 y          2.097985      2.099394     0.001409    Cartesian    0.07
    508 z         18.095518     18.092183    -0.003335    Cartesian   -0.02
    509 x        -11.863151    -11.859842     0.003309    Cartesian   -0.03
    509 y          1.817078      1.813138    -0.003940    Cartesian   -0.22
    509 z          5.189744      5.200036     0.010291    Cartesian    0.20
    510 x          1.211574      1.213329     0.001755    Cartesian    0.14
    510 y          9.365251      9.360371    -0.004881    Cartesian   -0.05
    510 z          5.189744      5.199950     0.010206    Cartesian    0.20
    511 x         -7.504758     -7.500775     0.003983    Cartesian   -0.05
    511 y          5.731880      5.724636    -0.007243    Cartesian   -0.13
    511 z         14.168915     14.162541    -0.006375    Cartesian   -0.04
    512 x          5.082516      5.076955    -0.005560    Cartesian   -0.11
    512 y         -8.802653     -8.793718     0.008935    Cartesian   -0.10
    512 z          1.263142      1.267763     0.004621    Cartesian    0.37
    513 x        -10.652030    -10.647250     0.004780    Cartesian   -0.04
    513 y         -3.914802     -3.909770     0.005032    Cartesian   -0.13
    513 z         14.168915     14.161518    -0.007397    Cartesian   -0.05
    514 x          8.229334      8.222466    -0.006868    Cartesian   -0.08
    514 y         -3.352203     -3.346342     0.005861    Cartesian   -0.17
    514 z          1.263142      1.269574     0.006431    Cartesian    0.51
    515 x         -7.504758     -7.502966     0.001792    Cartesian   -0.02
    515 y         -8.802653     -8.794799     0.007853    Cartesian   -0.09
    515 z          1.263142      1.267421     0.004279    Cartesian    0.34
    516 x         -8.228881     -8.233049    -0.004167    Cartesian    0.05
    516 y         -3.352464     -3.352781    -0.000317    Cartesian    0.01
    516 z         -1.263142     -1.268195    -0.005053    Cartesian    0.40
    517 x        -10.651577    -10.645424     0.006153    Cartesian   -0.06
    517 y         -3.352203     -3.348135     0.004068    Cartesian   -0.12
    517 z          1.263142      1.264196     0.001054    Cartesian    0.08
    518 x         -3.870942     -3.868856     0.002085    Cartesian   -0.05
    518 y        -10.901161    -10.895432     0.005728    Cartesian   -0.05
    518 z          1.263142      1.265549     0.002407    Cartesian    0.19
    519 x          0.724123      0.729000     0.004877    Cartesian    0.67
    519 y          5.450711      5.454705     0.003994    Cartesian    0.07
    519 z         -1.263142     -1.269871    -0.006729    Cartesian    0.53
    520 x          4.358393      4.358499     0.000106    Cartesian    0.00
    520 y         -3.352464     -3.348220     0.004245    Cartesian   -0.13
    520 z         18.095518     18.091746    -0.003772    Cartesian   -0.02
    521 x          1.935697      1.933355    -0.002342    Cartesian   -0.12
    521 y          7.548696      7.541911    -0.006785    Cartesian   -0.09
    521 z          1.263142      1.262526    -0.000617    Cartesian   -0.05
    522 x         -8.229334     -8.227679     0.001655    Cartesian   -0.02
    522 y          6.985836      6.978888    -0.006948    Cartesian   -0.10
    522 z         11.642631     11.637931    -0.004700    Cartesian   -0.04
    523 x         -5.569514     -5.571892    -0.002378    Cartesian    0.04
    523 y         -5.450188     -5.447582     0.002606    Cartesian   -0.05
    523 z         18.095518     18.092876    -0.002642    Cartesian   -0.01
    524 x         -4.357940     -4.357874     0.000066    Cartesian   -0.00
    524 y          7.548696      7.543561    -0.005136    Cartesian   -0.07
    524 z          1.263142      1.262315    -0.000828    Cartesian   -0.07
    525 x          5.082063      5.082670     0.000607    Cartesian    0.01
    525 y         -9.365251     -9.359172     0.006079    Cartesian   -0.06
    525 z         14.168915     14.162623    -0.006292    Cartesian   -0.04
    526 x          4.357940      4.357983     0.000043    Cartesian    0.00
    526 y          3.352203      3.357946     0.005743    Cartesian    0.17
    526 z         -1.263142     -1.267894    -0.004752    Cartesian    0.38
    527 x          5.569514      5.564044    -0.005470    Cartesian   -0.10
    527 y          5.450188      5.445825    -0.004363    Cartesian   -0.08
    527 z          1.263142      1.262227    -0.000915    Cartesian   -0.07
    528 x         -7.505211     -7.502071     0.003141    Cartesian   -0.04
    528 y         -9.365251     -9.358626     0.006625    Cartesian   -0.07
    528 z         14.168915     14.163504    -0.005411    Cartesian   -0.04
    529 x         -5.082063     -5.082667    -0.000604    Cartesian    0.01
    529 y        -12.436547    -12.426458     0.010089    Cartesian   -0.08
    529 z          5.189744      5.188216    -0.001528    Cartesian   -0.03
    530 x         10.164579     10.156093    -0.008485    Cartesian   -0.08
    530 y         -3.633372     -3.627861     0.005510    Cartesian   -0.15
    530 z          5.189744      5.188199    -0.001546    Cartesian   -0.03
    531 x         -1.935697     -1.933257     0.002441    Cartesian   -0.13
    531 y         -7.548696     -7.548514     0.000182    Cartesian   -0.00
    531 z         18.095518     18.093550    -0.001968    Cartesian   -0.01
    532 x          0.724123      0.723011    -0.001112    Cartesian   -0.15
    532 y        -12.717454    -12.714999     0.002455    Cartesian   -0.02
    532 z         11.642631     11.637792    -0.004839    Cartesian   -0.04
    533 x          1.211574      1.211923     0.000348    Cartesian    0.03
    533 y         -8.802914     -8.806248    -0.003334    Cartesian    0.04
    533 z         -1.263142     -1.265298    -0.002156    Cartesian    0.17
    534 x          2.422696      2.421552    -0.001144    Cartesian   -0.05
    534 y        -10.901161    -10.895681     0.005480    Cartesian   -0.05
    534 z          1.263142      1.263785     0.000642    Cartesian    0.05
    535 x          7.505211      7.501808    -0.003404    Cartesian   -0.05
    535 y          5.731618      5.730727    -0.000891    Cartesian   -0.02
    535 z         11.642631     11.641907    -0.000725    Cartesian   -0.01
    536 x         -8.716333     -8.721127    -0.004795    Cartesian    0.06
    536 y          7.267528      7.264078    -0.003450    Cartesian   -0.05
    536 z          5.189744      5.186693    -0.003051    Cartesian   -0.06
    537 x         -5.082063     -5.076620     0.005443    Cartesian   -0.11
    537 y          9.365251      9.367572     0.002321    Cartesian    0.02
    537 z          5.189744      5.186752    -0.002992    Cartesian   -0.06
    538 x         -8.716333     -8.708519     0.007813    Cartesian   -0.09
    538 y          0.000261      0.000734     0.000472    Cartesian  180.56
    538 z         -1.263142     -1.260865     0.002278    Cartesian   -0.18
    539 x          8.716333      8.709457    -0.006875    Cartesian   -0.08
    539 y         -0.000261     -0.000753    -0.000492    Cartesian  188.12
    539 z          1.263142      1.263418     0.000276    Cartesian    0.02
    540 x         -8.228881     -8.226151     0.002731    Cartesian   -0.03
    540 y        -10.619731    -10.612790     0.006941    Cartesian   -0.07
    540 z         11.642631     11.637923    -0.004708    Cartesian   -0.04
    541 x        -10.164579    -10.162272     0.002307    Cartesian   -0.02
    541 y          3.633372      3.631246    -0.002126    Cartesian   -0.06
    541 z         14.168915     14.167755    -0.001160    Cartesian   -0.01
    542 x         -5.569514     -5.569989    -0.000475    Cartesian    0.01
    542 y          9.084344      9.080208    -0.004137    Cartesian   -0.05
    542 z         11.642631     11.640324    -0.002307    Cartesian   -0.02
    543 x         -8.229334     -8.225623     0.003712    Cartesian   -0.05
    543 y        -11.182329    -11.167559     0.014770    Cartesian   -0.13
    543 z          5.189744      5.202640     0.012896    Cartesian    0.25
    544 x         10.651577     10.636943    -0.014634    Cartesian   -0.14
    544 y         -0.281430     -0.277235     0.004195    Cartesian   -1.49
    544 z          5.189744      5.202721     0.012976    Cartesian    0.25
    545 x          7.504758      7.500508    -0.004250    Cartesian   -0.06
    545 y         -9.365513     -9.361580     0.003933    Cartesian   -0.04
    545 z         11.642631     11.644200     0.001569    Cartesian    0.01
    546 x          4.357940      4.354062    -0.003878    Cartesian   -0.09
    546 y         -7.548696     -7.542466     0.006231    Cartesian   -0.08
    546 z         -1.263142     -1.259649     0.003493    Cartesian   -0.28
    547 x         -5.082063     -5.080400     0.001663    Cartesian   -0.03
    547 y         -8.802914     -8.801647     0.001267    Cartesian   -0.01
    547 z         -1.263142     -1.265120    -0.001978    Cartesian    0.16
    548 x        -10.164579    -10.163712     0.000867    Cartesian   -0.01
    548 y         -7.267528     -7.266628     0.000900    Cartesian   -0.01
    548 z         14.168915     14.167745    -0.001171    Cartesian   -0.01
    549 x         -1.211574     -1.216609    -0.005035    Cartesian    0.42
    549 y          8.802914      8.787629    -0.015285    Cartesian   -0.17
    549 z          1.263142      1.271900     0.008757    Cartesian    0.69
    550 x         -5.569514     -5.562360     0.007155    Cartesian   -0.13
    550 y          5.450711      5.451881     0.001170    Cartesian    0.02
    550 z         -1.263142     -1.261338     0.001804    Cartesian   -0.14
    551 x         -0.724123     -0.729902    -0.005779    Cartesian    0.80
    551 y          9.083821      9.076848    -0.006973    Cartesian   -0.08
    551 z         14.168915     14.159200    -0.009715    Cartesian   -0.07
    552 x          5.082516      5.082650     0.000135    Cartesian    0.00
    552 y        -12.436286    -12.436637    -0.000352    Cartesian    0.00
    552 z          7.716029      7.723698     0.007669    Cartesian    0.10
    553 x         -5.569514     -5.569559    -0.000045    Cartesian    0.00
    553 y        -12.717454    -12.712895     0.004560    Cartesian   -0.04
    553 z         11.642631     11.641085    -0.001546    Cartesian   -0.01
    554 x          8.228881      8.219125    -0.009756    Cartesian   -0.12
    554 y          3.352464      3.342366    -0.010098    Cartesian   -0.30
    554 z          1.263142      1.271318     0.008175    Cartesian    0.65
    555 x         -8.228881     -8.223846     0.005035    Cartesian   -0.06
    555 y         -3.352464     -3.346923     0.005541    Cartesian   -0.17
    555 z         18.095518     18.090203    -0.005315    Cartesian   -0.03
    556 x         -7.504758     -7.503747     0.001011    Cartesian   -0.01
    556 y        -12.436286    -12.442914    -0.006628    Cartesian    0.05
    556 z          7.716029      7.720822     0.004793    Cartesian    0.06
    557 x         11.376153     11.381528     0.005375    Cartesian    0.05
    557 y         -1.535386     -1.539704    -0.004318    Cartesian    0.28
    557 z          7.716029      7.720776     0.004747    Cartesian    0.06
    558 x         10.652030     10.647054    -0.004976    Cartesian   -0.05
    558 y          0.281169      0.280014    -0.001155    Cartesian   -0.41
    558 z         11.642631     11.642614    -0.000017    Cartesian   -0.00
    559 x        -11.376153    -11.389412    -0.013260    Cartesian    0.12
    559 y          5.169020      5.166473    -0.002547    Cartesian   -0.05
    559 z          5.189744      5.184631    -0.005113    Cartesian   -0.10
    560 x          0.724123      0.718646    -0.005477    Cartesian   -0.76
    560 y          5.450711      5.448544    -0.002168    Cartesian   -0.04
    560 z         18.095518     18.090816    -0.004702    Cartesian   -0.03
    561 x         -1.935697     -1.926745     0.008952    Cartesian   -0.46
    561 y         10.619469     10.629397     0.009928    Cartesian    0.09
    561 z          5.189744      5.184517    -0.005227    Cartesian   -0.10
    562 x         -8.229334     -8.230149    -0.000814    Cartesian    0.01
    562 y          3.352203      3.353199     0.000996    Cartesian    0.03
    562 z         -1.263142     -1.266160    -0.003018    Cartesian    0.24
    563 x        -10.652030    -10.647604     0.004426    Cartesian   -0.04
    563 y          3.352464      3.347947    -0.004518    Cartesian   -0.13
    563 z          1.263142      1.265123     0.001980    Cartesian    0.16
    564 x         10.651577     10.646299    -0.005278    Cartesian   -0.05
    564 y         -3.915063     -3.912803     0.002260    Cartesian   -0.06
    564 z         11.642631     11.643518     0.000887    Cartesian    0.01
    565 x          7.504758      7.496953    -0.007805    Cartesian   -0.10
    565 y         -2.098247     -2.092715     0.005532    Cartesian   -0.26
    565 z         -1.263142     -1.256253     0.006889    Cartesian   -0.55
    566 x          4.357940      4.358168     0.000228    Cartesian    0.01
    566 y          3.352203      3.347018    -0.005184    Cartesian   -0.15
    566 z         18.095518     18.091202    -0.004316    Cartesian   -0.02
    567 x        -13.311397    -13.307771     0.003626    Cartesian   -0.03
    567 y          1.816555      1.820652     0.004097    Cartesian    0.23
    567 z          7.716029      7.727795     0.011767    Cartesian    0.15
    568 x          1.935244      1.929919    -0.005326    Cartesian   -0.28
    568 y         10.619731     10.618481    -0.001249    Cartesian   -0.01
    568 z          7.716029      7.727742     0.011714    Cartesian    0.15
    569 x        -13.798396    -13.799648    -0.001252    Cartesian    0.01
    569 y         -1.535386     -1.531551     0.003835    Cartesian   -0.25
    569 z          7.716029      7.723448     0.007419    Cartesian    0.10
    570 x          5.082516      5.079846    -0.002670    Cartesian   -0.05
    570 y          9.365513      9.368249     0.002736    Cartesian    0.03
    570 z          7.716029      7.723327     0.007299    Cartesian    0.09
    571 x        -10.164579    -10.169203    -0.004624    Cartesian    0.05
    571 y          7.267005      7.269630     0.002625    Cartesian    0.04
    571 z          7.716029      7.718302     0.002273    Cartesian    0.03
    572 x         -4.358393     -4.358239     0.000153    Cartesian   -0.00
    572 y         10.619731     10.624985     0.005255    Cartesian    0.05
    572 z          7.716029      7.718232     0.002204    Cartesian    0.03
    573 x         -7.504758     -7.494954     0.009804    Cartesian   -0.13
    573 y          9.365513      9.348592    -0.016921    Cartesian   -0.18
    573 z          7.716029      7.706032    -0.009997    Cartesian   -0.13
    574 x          1.211574      1.213299     0.001725    Cartesian    0.14
    574 y         -8.802914     -8.796196     0.006718    Cartesian   -0.08
    574 z         18.095518     18.090678    -0.004839    Cartesian   -0.03
    575 x         -1.211574     -1.209697     0.001878    Cartesian   -0.15
    575 y         -2.097985     -2.094813     0.003173    Cartesian   -0.15
    575 z         20.621802     20.619563    -0.002239    Cartesian   -0.01
    576 x         -0.724123     -0.729141    -0.005018    Cartesian    0.69
    576 y        -12.717977    -12.711918     0.006059    Cartesian   -0.05
    576 z         14.168915     14.161462    -0.007453    Cartesian   -0.05
    577 x         -8.716333     -8.715417     0.000916    Cartesian   -0.01
    577 y          0.000261      0.000296     0.000034    Cartesian   13.05
    577 z         18.095518     18.091774    -0.003743    Cartesian   -0.02
    578 x          8.716333      8.703629    -0.012704    Cartesian   -0.15
    578 y          3.633372      3.631644    -0.001727    Cartesian   -0.05
    578 z         14.168915     14.161143    -0.007773    Cartesian   -0.05
    579 x          8.228881      8.223566    -0.005315    Cartesian   -0.06
    579 y         -7.548435     -7.547074     0.001360    Cartesian   -0.02
    579 z          1.263142      1.265271     0.002129    Cartesian    0.17
    580 x        -10.652030    -10.645036     0.006994    Cartesian   -0.07
    580 y         -7.548435     -7.541333     0.007102    Cartesian   -0.09
    580 z          1.263142      1.262254    -0.000888    Cartesian   -0.07
    581 x          4.357940      4.356640    -0.001300    Cartesian   -0.03
    581 y         -7.548696     -7.546959     0.001737    Cartesian   -0.02
    581 z         18.095518     18.092725    -0.002793    Cartesian   -0.02
    582 x         -5.082063     -5.076728     0.005335    Cartesian   -0.10
    582 y         -8.802914     -8.793224     0.009690    Cartesian   -0.11
    582 z         18.095518     18.087140    -0.008377    Cartesian   -0.05
    583 x         -0.724123     -0.718675     0.005448    Cartesian   -0.75
    583 y         -1.817078     -1.816771     0.000307    Cartesian   -0.02
    583 z         -5.189744     -5.180672     0.009073    Cartesian   -0.17
    584 x         -1.211574     -1.209989     0.001585    Cartesian   -0.13
    584 y        -12.998884    -12.989487     0.009398    Cartesian   -0.07
    584 z          1.263142      1.262064    -0.001078    Cartesian   -0.09
    585 x         -5.569514     -5.570361    -0.000847    Cartesian    0.02
    585 y          5.450711      5.448826    -0.001885    Cartesian   -0.03
    585 z         18.095518     18.090997    -0.004521    Cartesian   -0.02
--------------------------------------------------------------------------------


  Time to end of optimisation  =      139.9293 seconds


  Peak dynamic memory used =      53.36 MB 


  Timing analysis for GULP :

--------------------------------------------------------------------------------
  Task / Subroutine                                          Time (Seconds)
--------------------------------------------------------------------------------
  Calculation of reciprocal space energy and derivatives          0.0019
  Calculation of reciprocal space energy using symmetry           0.0268
  Calculation of real space energy and derivatives                0.0087
  Calculation of real space energy using symmetry                 0.3933
  Calculation for region 1 energy and derivatives (2-b)          40.7063
  Calculation for region 2a energy                               82.1581
  Calculation for region 2b energy                                0.0214
  Calculation and manipulation of Hessian matrix                  0.0147
  Calculation of matrix inversion                                16.1513
  Symmetry generation of equivalent positions                     0.0014
  Global summation overhead                                       0.0002
--------------------------------------------------------------------------------
  Total CPU time                                                139.9294
--------------------------------------------------------------------------------


  Dump file written as ScCl3.grs



  **** GULP has completed with   2 warnings - beware! ****

  Job Finished at 11:35.15 18th August     2021                               

