********************************************************************************
*                       GENERAL UTILITY LATTICE PROGRAM                        *
*                                 Julian Gale                                  *
*                       Curtin Institute for Computation                       *
*                    School of Molecular and Life Sciences                     *
*                    Curtin University, Western Australia                      *
********************************************************************************
* Version = 5.2.0 * Last modified =  10th September 2020                       *
********************************************************************************
*  optimise     - perform optimisation run                                     *
*  conp         - constant pressure calculation                                *
*  property     - calculate properties for final geometry                      *
*  defect       - perform defect calculation after bulk run                    *
*  compare      - compare initial and final structures                         *
********************************************************************************

  Job Started  at 11:32.55 18th August     2021                               

  Number of CPUs =     1


  Total number of configurations input =      1

********************************************************************************
*  Input for Configuration =   1                                               *
********************************************************************************

  Formula = Sc2Cl6                                                      

  Number of irreducible atoms/shells =       3


  Total number atoms/shells =      14

  Dimensionality = 3               :  Bulk   


  Symmetry :

  Crystal family                   :  Hexagonal   
  Crystal class  (Groth - 1921)    :  Trigonal Rhombohedral                

  Space group (centrosymmetric)    :  R -3            

  Patterson group                  :  R -3     

  Cartesian lattice vectors (Angstroms) :

        3.246588    1.874418    6.441540
       -3.246588    1.874418    6.441540
        0.000000   -3.748837    6.441540

  Cell parameters (Angstroms/Degrees):

  a =       7.4530    alpha =  51.6480
  b =       7.4530    beta  =  51.6480
  c =       7.4530    gamma =  51.6480

  Initial cell volume =         235.198534 Angs**3

  Temperature of configuration =   0.00     K 

  Pressure of configuration =         0.000 GPa 

  Fractional coordinates of asymmetric unit :

--------------------------------------------------------------------------------
   No.  Atomic       x           y          z         Charge      Occupancy
        Label      (Frac)      (Frac)     (Frac)        (e)         (Frac)  
--------------------------------------------------------------------------------
      1 Sc    c    0.333900    0.333900    0.333900 *   3.00000    1.000000    
      2 Cl    c    0.073700 *  0.443900 *  0.705300 *   1.48500    1.000000    
      3 Cl    s    0.073700 *  0.443900 *  0.705300 *  -2.48500    1.000000    
--------------------------------------------------------------------------------


  Constraints : 

--------------------------------------------------------------------------------
  Constraint no.      Unconstrained     Constrained    Coefficient    Offset
                         Variable         Variable
--------------------------------------------------------------------------------
           1              Strain 1        Strain 2       1.00000      0.0000
--------------------------------------------------------------------------------


********************************************************************************
*  General input information                                                   *
********************************************************************************

  Species output for all configurations : 

--------------------------------------------------------------------------------
  Species    Type    Atomic    Atomic    Charge       Radii (Angs)     Library
                     Number     Mass       (e)     Cova   Ionic  VDW   Symbol
--------------------------------------------------------------------------------
    Sc       Core       21      44.96   3.000000   1.440  0.000  2.150          
    Cl       Core       17      35.45   1.485000   0.990  0.000  1.650          
    Cl       Shell      17       0.00  -2.485000   0.990  0.000  1.650          
--------------------------------------------------------------------------------


  Lattice summation method               =    Ewald          (3-D)
                                         =    Parry          (2-D)
                                         =    Saunders et al (1-D)
  Accuracy factor for lattice sums       =   12.000


  Analytic derivatives to be used

  Time limit = Infinity

  Maximum range for interatomic potentials =    100000.000000 Angstroms

  General interatomic potentials :

--------------------------------------------------------------------------------
Atom  Types   Potential      Parameter       Value         Units   Cutoffs(Ang)
  1     2                                                            Min /  Max 
--------------------------------------------------------------------------------
Cl   c Cl   s Spring (c-s)  Spring k 2       29.380000    eV*Ang^-2 0.000  0.800
                            Spring k 4       0.0000000    eV*Ang^-4 
--------------------------------------------------------------------------------
Sc   c Cl   s Buckingham    Buckingham A     12131.350    eV        0.000 12.000
                            Buckingham rho  0.25070000    Ang       
                            Buckingham C     0.0000000    eV*Ang^6  
--------------------------------------------------------------------------------
Cl   s Cl   s Buckingham    Buckingham A     1227.2000    eV        0.000 12.000
                            Buckingham rho  0.32100000    Ang       
                            Buckingham C     14.530000    eV*Ang^6  
--------------------------------------------------------------------------------

********************************************************************************
*  Output for configuration   1                                                *
********************************************************************************


  Components of energy : 

--------------------------------------------------------------------------------
  Interatomic potentials     =           6.77737779 eV    
  Monopole - monopole (real) =         -30.86300284 eV    
  Monopole - monopole (recip)=         -65.52201623 eV    
  Monopole - monopole (total)=         -96.38501907 eV    
--------------------------------------------------------------------------------
  Total lattice energy : 
    Primitive unit cell      =         -89.60764128 eV    
    Non-primitive unit cell  =        -268.82292384 eV    
--------------------------------------------------------------------------------
  Total lattice energy (in kJmol-1): 
    Primitive unit cell      =           -8645.7676 kJ/(mole unit cells)
    Non-primitive unit cell  =          -25937.3028 kJ/(mole unit cells)
--------------------------------------------------------------------------------


  Number of variables =        9

  Maximum number of calculations  =          1000
  Maximum Hessian update interval =            10
  Maximum step size               =   1.000000000
  Maximum parameter tolerance     =   0.000010000
  Maximum function  tolerance     =   0.000010000
  Maximum gradient  tolerance     =   0.001000000
  Maximum gradient  component     =   0.010000000

  Symmetry constrained optimisation

  Symmetry used for second derivatives

  Cell parameters to be optimised using strains

  Newton-Raphson optimiser to be used

  BFGS hessian update to be used

  Lower half triangular hessian to be used

  Start of bulk optimisation :

  Cycle:      0 Energy:       -89.607641  Gnorm:    194.660938  CPU:    0.009
  ** Hessian calculated **
  Cycle:      1 Energy:       -99.336245  Gnorm:     16.922396  CPU:    0.017
  Cycle:      2 Energy:       -99.561570  Gnorm:      7.561347  CPU:    0.027
  Cycle:      3 Energy:       -99.729576  Gnorm:      4.412393  CPU:    0.037
  Cycle:      4 Energy:       -99.829400  Gnorm:      2.218678  CPU:    0.047
  Cycle:      5 Energy:       -99.844572  Gnorm:      0.723795  CPU:    0.055
  Cycle:      6 Energy:       -99.846381  Gnorm:      0.448826  CPU:    0.066
  Cycle:      7 Energy:       -99.846853  Gnorm:      0.344817  CPU:    0.074
  Cycle:      8 Energy:       -99.849123  Gnorm:      0.319075  CPU:    0.089
  Cycle:      9 Energy:       -99.851112  Gnorm:      0.253552  CPU:    0.101
  Cycle:     10 Energy:       -99.852597  Gnorm:      0.161985  CPU:    0.114
  ** Hessian calculated **
  Cycle:     11 Energy:       -99.854095  Gnorm:      0.114649  CPU:    0.132
  Cycle:     12 Energy:       -99.855517  Gnorm:      0.062367  CPU:    0.145
  Cycle:     13 Energy:       -99.856271  Gnorm:      0.091299  CPU:    0.155
  Cycle:     14 Energy:       -99.856398  Gnorm:      0.057833  CPU:    0.168
  Cycle:     15 Energy:       -99.709969  Gnorm:      9.382415  CPU:    0.205
  ** Hessian calculated **
  Cycle:     16 Energy:       -99.834592  Gnorm:      3.493936  CPU:    0.221
  Cycle:     17 Energy:       -99.855984  Gnorm:      0.183406  CPU:    0.231
  Cycle:     18 Energy:       -99.856377  Gnorm:      0.024886  CPU:    0.242
  ** Hessian calculated **
  Cycle:     19 Energy:       -99.856378  Gnorm:      0.010051  CPU:    0.254
  Cycle:     20 Energy:       -99.856379  Gnorm:      0.013393  CPU:    0.263
  Cycle:     21 Energy:       -99.856379  Gnorm:      0.009613  CPU:    0.272
  Cycle:     22 Energy:       -99.856380  Gnorm:      0.011718  CPU:    0.281
  Cycle:     23 Energy:       -99.856381  Gnorm:      0.013744  CPU:    0.289
  Cycle:     24 Energy:       -99.856381  Gnorm:      0.012669  CPU:    0.298
  Cycle:     25 Energy:       -99.856382  Gnorm:      0.013916  CPU:    0.307
  Cycle:     26 Energy:       -99.856383  Gnorm:      0.012516  CPU:    0.316
  Cycle:     27 Energy:       -99.856383  Gnorm:      0.006850  CPU:    0.325
  Cycle:     28 Energy:       -99.856383  Gnorm:      0.005130  CPU:    0.334
  ** Hessian calculated **
  Cycle:     29 Energy:       -99.856383  Gnorm:      0.005098  CPU:    0.346
  Cycle:     30 Energy:       -99.856383  Gnorm:      0.005050  CPU:    0.355
  Cycle:     31 Energy:       -99.856384  Gnorm:      0.004978  CPU:    0.364
  Cycle:     32 Energy:       -99.856384  Gnorm:      0.004870  CPU:    0.373
  Cycle:     33 Energy:       -99.856385  Gnorm:      0.004708  CPU:    0.381
  Cycle:     34 Energy:       -99.856385  Gnorm:      0.004465  CPU:    0.390
  Cycle:     35 Energy:       -99.856387  Gnorm:      0.004100  CPU:    0.399
  Cycle:     36 Energy:       -99.856389  Gnorm:      0.003183  CPU:    0.410
  Cycle:     37 Energy:       -99.856390  Gnorm:      0.002732  CPU:    0.421
  Cycle:     38 Energy:       -99.856390  Gnorm:      0.002622  CPU:    0.432
  ** Hessian calculated **
  Cycle:     39 Energy:       -99.856390  Gnorm:      0.002617  CPU:    0.452
  Cycle:     40 Energy:       -99.856390  Gnorm:      0.002611  CPU:    0.467
  Cycle:     41 Energy:       -99.856390  Gnorm:      0.002596  CPU:    0.483
  Cycle:     42 Energy:       -99.856390  Gnorm:      0.002573  CPU:    0.498
  Cycle:     43 Energy:       -99.856391  Gnorm:      0.002556  CPU:    0.516
  Cycle:     44 Energy:       -99.856391  Gnorm:      0.002551  CPU:    0.525
  Cycle:     45 Energy:       -99.856376  Gnorm:      0.010367  CPU:    0.550
  ** Hessian calculated **
  Cycle:     46 Energy:       -99.856376  Gnorm:      0.003162  CPU:    0.562
  Cycle:     47 Energy:       -99.856376  Gnorm:      0.004154  CPU:    0.571
  Cycle:     48 Energy:       -99.856376  Gnorm:      0.004258  CPU:    0.580
  Cycle:     49 Energy:       -99.856376  Gnorm:      0.003063  CPU:    0.588
  Cycle:     50 Energy:       -99.856376  Gnorm:      0.003213  CPU:    0.597
  Cycle:     51 Energy:       -99.856376  Gnorm:      0.002448  CPU:    0.606
  Cycle:     52 Energy:       -99.856376  Gnorm:      0.002432  CPU:    0.614
  Cycle:     53 Energy:       -99.856376  Gnorm:      0.002202  CPU:    0.623
  Cycle:     54 Energy:       -99.856376  Gnorm:      0.003030  CPU:    0.632
  Cycle:     55 Energy:       -99.856377  Gnorm:      0.003988  CPU:    0.640
  ** Hessian calculated **
  Cycle:     56 Energy:       -99.856377  Gnorm:      0.003870  CPU:    0.652
  Cycle:     57 Energy:       -99.856377  Gnorm:      0.003694  CPU:    0.687
  Cycle:     58 Energy:       -99.856377  Gnorm:      0.003429  CPU:    0.758
  Cycle:     59 Energy:       -99.856377  Gnorm:      0.003032  CPU:    0.780
  Cycle:     60 Energy:       -99.856378  Gnorm:      0.002436  CPU:    0.793
  Cycle:     61 Energy:       -99.856378  Gnorm:      0.001545  CPU:    0.806


  **** Optimisation achieved ****


  Final energy =     -99.85637867 eV
  Final Gnorm  =       0.00022970

  Components of energy : 

--------------------------------------------------------------------------------
  Interatomic potentials     =          20.55356182 eV    
  Monopole - monopole (real) =          80.99460097 eV    
  Monopole - monopole (recip)=        -201.40454146 eV    
  Monopole - monopole (total)=        -120.40994049 eV    
--------------------------------------------------------------------------------
  Total lattice energy : 
    Primitive unit cell      =         -99.85637867 eV    
    Non-primitive unit cell  =        -299.56913600 eV    
--------------------------------------------------------------------------------
  Total lattice energy (in kJmol-1): 
    Primitive unit cell      =           -9634.6141 kJ/(mole unit cells)
    Non-primitive unit cell  =          -28903.8423 kJ/(mole unit cells)
--------------------------------------------------------------------------------

  Final asymmetric unit coordinates :

--------------------------------------------------------------------------------
   No.  Atomic        x           y           z         Radius
        Label       (Frac)      (Frac)      (Frac)       (Angs) 
--------------------------------------------------------------------------------
     1  Sc    c     0.333302    0.333302    0.333302    0.000000
     2  Cl    c     0.077345    0.440528    0.713912    0.000000
     3  Cl    s     0.065297    0.450169    0.680282    0.000000
--------------------------------------------------------------------------------

  Final Cartesian lattice vectors (Angstroms) :

        3.146819    1.816817    6.452887
       -3.146819    1.816817    6.452887
        0.000000   -3.633633    6.452887


  Final cell parameters and derivatives :

--------------------------------------------------------------------------------
       a            7.405608 Angstrom     dE/de1(xx)    -0.000123 eV/strain
       b            7.405608 Angstrom     dE/de2(yy)     0.000000 eV/strain
       c            7.405608 Angstrom     dE/de3(zz)    -0.000049 eV/strain
       alpha       50.291669 Degrees      dE/de4(yz)     0.000000 eV/strain
       beta        50.291669 Degrees      dE/de5(xz)     0.000000 eV/strain
       gamma       50.291669 Degrees      dE/de6(xy)     0.000000 eV/strain
--------------------------------------------------------------------------------

  Primitive cell volume =           221.354351 Angs**3

  Density of cell =      2.270208 g/cm**3

  Non-primitive lattice parameters :

  a    =     6.293637  b   =     6.293637  c    =    19.358660
  alpha=    90.000000  beta=    90.000000  gamma=   120.000000

  Non-primitive cell volume =           664.063053 Angs**3


  Final internal derivatives :

--------------------------------------------------------------------------------
   No.  Atomic          a             b             c           Radius
        Label          (eV)          (eV)          (eV)        (eV/Angs)
--------------------------------------------------------------------------------
      1 Sc    c       0.000000      0.000000      0.000333      0.000000
      2 Cl    c      -0.000512      0.000026      0.001871      0.000000
      3 Cl    s      -0.000302      0.000461     -0.000278      0.000000
--------------------------------------------------------------------------------
  Maximum abs         0.000512      0.000461      0.001871      0.000000
--------------------------------------------------------------------------------

  Comparison of initial and final structures : 

--------------------------------------------------------------------------------
  Parameter   Initial value   Final value   Difference    Units      Percent
--------------------------------------------------------------------------------
    Volume       705.595603    664.063053   -41.532550    Angs**3     -5.89
    a              6.493176      6.293637    -0.199538    Angstroms   -3.07
    b              6.493176      6.293637    -0.199538    Angstroms   -3.07
    c             19.324619     19.358660     0.034041    Angstroms    0.18
    alpha         90.000000     90.000000     0.000000    Degrees      0.00
    beta          90.000000     90.000000     0.000000    Degrees      0.00
    gamma        120.000000    120.000000     0.000000    Degrees      0.00
      1 x          0.000000      0.000000     0.000000    Fractional   0.00
      1 y          0.000000      0.000000     0.000000    Fractional   0.00
      1 z          0.333900      0.333302     0.000598    Fractional   0.18
      2 x          0.666067      0.666750     0.000683    Fractional   0.10
      2 y          0.702333      0.696683     0.005650    Fractional   0.80
      2 z          0.407633      0.410595     0.002962    Fractional   0.73
      3 x          0.666067      0.666715     0.000648    Fractional   0.10
      3 y          0.702333      0.718301     0.015968    Fractional   2.27
      3 z          0.407633      0.398583     0.009051    Fractional   2.22
--------------------------------------------------------------------------------


  Born effective charge tensors : 

-------------------------------------------------------------------------------
  Atom             x           y             z
-------------------------------------------------------------------------------
    1 Sc    x       1.8547     -0.0008      0.0000
            y       0.0008      1.8547      0.0000
            z       0.0000      0.0000      1.3341
-------------------------------------------------------------------------------
    2 Cl    x      -0.6622     -0.0739     -0.0054
            y      -0.0744     -0.5743      0.0077
            z      -0.0118      0.0242     -0.4447
-------------------------------------------------------------------------------




  Elastic Constant Matrix: (Units=GPa)

-------------------------------------------------------------------------------
  Indices      1         2         3         4         5         6    
-------------------------------------------------------------------------------
       1     59.0042   36.7253    0.0676   -0.0391    0.0164    0.0000
       2     36.7253   59.0042    0.0676    0.0391   -0.0164   -0.0000
       3      0.0676    0.0676    1.3662   -0.0000   -0.0000    0.0000
       4     -0.0391    0.0391   -0.0000    0.1362   -0.0000   -0.0164
       5      0.0164   -0.0164   -0.0000   -0.0000    0.1362   -0.0391
       6      0.0000   -0.0000    0.0000   -0.0164   -0.0391   11.1394
-------------------------------------------------------------------------------


  Elastic Compliance Matrix: (Units=1/GPa)

-------------------------------------------------------------------------------
  Indices      1         2         3         4         5         6    
-------------------------------------------------------------------------------
       1    0.027693 -0.017246 -0.000517  0.012917 -0.005403 -0.000000
       2   -0.017246  0.027693 -0.000517 -0.012917  0.005403  0.000000
       3   -0.000517 -0.000517  0.731998 -0.000000  0.000000 -0.000000
       4    0.012917 -0.012917 -0.000000  7.352608  0.000000  0.010807
       5   -0.005403  0.005403  0.000000  0.000000  7.352608  0.025834
       6   -0.000000  0.000000 -0.000000  0.010807  0.025834  0.089878
-------------------------------------------------------------------------------

  Mechanical properties :

-------------------------------------------------------------------------------
  Convention :                    Reuss         Voigt         Hill
-------------------------------------------------------------------------------
  Bulk  Modulus (GPa)     =       1.33187      21.45510      11.39349
  Shear Modulus (GPa)     =       0.31507       7.78329       4.04918
-------------------------------------------------------------------------------
  Velocity S-wave (km/s)  =       0.37254       1.85161       1.33552
  Velocity P-wave (km/s)  =       0.87848       3.74459       2.71972
-------------------------------------------------------------------------------
  Compressibility (1/GPa) =    0.75082247
-------------------------------------------------------------------------------
  Stress axis :                     x             y             z
-------------------------------------------------------------------------------
  Youngs Moduli (GPa)     =      36.11042      36.11042       1.36612
-------------------------------------------------------------------------------
  Poissons Ratio (x)      =                     0.62276       0.00071
  Poissons Ratio (y)      =       0.62276                     0.00071
  Poissons Ratio (z)      =       0.01868       0.01868
-------------------------------------------------------------------------------


  Piezoelectric Strain Matrix: (Units=C/m**2)

-------------------------------------------------------------------------------
  Indices      1         2         3         4         5         6    
-------------------------------------------------------------------------------
       x    -0.00000  -0.00000  -0.00000  -0.00000  -0.00000  -0.00000
       y     0.00000  -0.00000   0.00000   0.00000   0.00000  -0.00000
       z    -0.00000   0.00000  -0.00000   0.00000  -0.00000  -0.00000
-------------------------------------------------------------------------------


  Piezoelectric Stress Matrix: (Units=10**-11 C/N)

-------------------------------------------------------------------------------
  Indices      1         2         3         4         5         6    
-------------------------------------------------------------------------------
       x    -0.00000  -0.00000  -0.00000  -0.00000  -0.00000  -0.00000
       y     0.00000  -0.00000   0.00000   0.00000   0.00000  -0.00000
       z    -0.00000   0.00000  -0.00000   0.00000  -0.00000  -0.00000
-------------------------------------------------------------------------------


  Static dielectric constant tensor : 

-------------------------------------------------------------------------------
              x         y         z
-------------------------------------------------------------------------------
       x     2.69429  -0.00000   0.00000
       y    -0.00000   2.69429   0.00000
       z     0.00000   0.00000   2.22327
--------------------------------------------------------------------------------

  High frequency dielectric constant tensor : 

-------------------------------------------------------------------------------
              x         y         z
-------------------------------------------------------------------------------
       x     2.11991  -0.00000   0.00000
       y    -0.00000   2.11991   0.00000
       z     0.00000   0.00000   1.97865
-------------------------------------------------------------------------------

  Static refractive indices : 

-------------------------------------------------------------------------------
    1 =    1.49106      2 =    1.64143      3 =    1.64143
-------------------------------------------------------------------------------

  High frequency refractive indices : 

-------------------------------------------------------------------------------
    1 =    1.40664      2 =    1.45599      3 =    1.45599
-------------------------------------------------------------------------------


  Time to end of optimisation =       0.8447 seconds

********************************************************************************
*  Defect calculation for configuration   1 :                                  *
********************************************************************************



!!!!!!!!!!!!!!!!!!!!!!!!!!!!!!!!!!!!!!!!!!!!!!!!!!!!!!!!!!!!!!!!!!!!!!!!!!!!!!!!
!! WARNING : Ambiguous vacancy specifier used
!!!!!!!!!!!!!!!!!!!!!!!!!!!!!!!!!!!!!!!!!!!!!!!!!!!!!!!!!!!!!!!!!!!!!!!!!!!!!!!!



!!!!!!!!!!!!!!!!!!!!!!!!!!!!!!!!!!!!!!!!!!!!!!!!!!!!!!!!!!!!!!!!!!!!!!!!!!!!!!!!
!! WARNING : Ambiguous vacancy specifier used
!!!!!!!!!!!!!!!!!!!!!!!!!!!!!!!!!!!!!!!!!!!!!!!!!!!!!!!!!!!!!!!!!!!!!!!!!!!!!!!!

  Total number of defects =      2

  Total charge on defect  =   1.00

  Defect centre is at   0.0737   0.4439   0.7053  Frac

  Region 1 radius =  14.0000      Number of ions =    705

  Region 2 radius =  24.0000      Number of ions =   2958

  Region 2a mode = 4 : screened electrostatics due to region 1 
                       neglect correction to region 1 forces from 2a
                       region 2a displacements based on defects only

  Region 2a ions will only interact with defects in region 1

  Vacancies:

--------------------------------------------------------------------------------
    Specification type     Symbol/Number         x          y          z
--------------------------------------------------------------------------------
    Atom                    Cl    core
    Atom                    Cl    shel
--------------------------------------------------------------------------------


  Components of defect energy : 

--------------------------------------------------------------------------------
  Region 1 - region 1                   =     24.53925485 eV
  Region 1 - region 2a (unrelaxed)      =    -14.25515027 eV
  Region 1 - 2a (relaxed - correction)  =     -0.26043392 eV
  Region 1 (Total)                      =     10.02367065 eV
  Region 2a                             =      0.13023186 eV
  Region 2b                             =     -0.18241543 eV
--------------------------------------------------------------------------------
  Total defect energy                   =      9.97148708 eV
--------------------------------------------------------------------------------

  Largest displacement in region 2 =   0.0091 Angstroms


  Number of variables =     2115

  Maximum number of calculations  =        1000
  Maximum Hessian update interval =          10
  Maximum step size               =   1.0000000
  Maximum parameter tolerance     =   0.0000100
  Maximum function  tolerance     =   0.0000100
  Maximum gradient  tolerance     =   0.0010000

  Symmetry adapted optimisation

  Newton-Raphson optimiser to be used

  BFGS hessian update to be used

  Lower half triangular hessian to be used

  Start of defect optimisation :

  Cycle:      0 Defect Energy:   9.971487  Gnorm:     0.008422  CPU:   14.307
  ** Hessian calculated **
  Cycle:      1 Defect Energy:   8.890622  Gnorm:     0.006727  CPU:   50.004
  Cycle:      2 Defect Energy:   7.659532  Gnorm:     0.004063  CPU:   74.922
  Cycle:      3 Defect Energy:   6.825008  Gnorm:     0.000449  CPU:   99.171
  Cycle:      4 Defect Energy:   6.797589  Gnorm:     0.000337  CPU:  103.471
  Cycle:      5 Defect Energy:   6.776651  Gnorm:     0.000270  CPU:  107.829
  Cycle:      6 Defect Energy:   6.773743  Gnorm:     0.000268  CPU:  111.485
  ** Hessian calculated **
  Cycle:      7 Defect Energy:   6.753449  Gnorm:     0.000189  CPU:  128.251
  Cycle:      8 Defect Energy:   6.742893  Gnorm:     0.000135  CPU:  131.963
  Cycle:      9 Defect Energy:   6.737062  Gnorm:     0.000096  CPU:  135.745
  Cycle:     10 Defect Energy:   6.733865  Gnorm:     0.000068  CPU:  139.486
  Cycle:     11 Defect Energy:   6.732142  Gnorm:     0.000049  CPU:  143.163
  Cycle:     12 Defect Energy:   6.731233  Gnorm:     0.000035  CPU:  146.809
  Cycle:     13 Defect Energy:   6.730762  Gnorm:     0.000024  CPU:  149.670
  Cycle:     14 Defect Energy:   6.730523  Gnorm:     0.000017  CPU:  152.379
  Cycle:     15 Defect Energy:   6.730403  Gnorm:     0.000012  CPU:  155.145
  Cycle:     16 Defect Energy:   6.730336  Gnorm:     0.000009  CPU:  157.918
  ** Hessian calculated **
  Cycle:     17 Defect Energy:   6.730310  Gnorm:     0.000006  CPU:  175.470
  Cycle:     18 Defect Energy:   6.730295  Gnorm:     0.000004  CPU:  178.202


  **** Optimisation achieved ****


  Final defect energy  =        6.73029325
  Final defect Gnorm   =        0.00000296

  Components of defect energy : 

--------------------------------------------------------------------------------
  Region 1 - region 1                   =     21.46437848 eV
  Region 1 - region 2a (unrelaxed)      =    -14.43180635 eV
  Region 1 - 2a (relaxed - correction)  =     -0.23938911 eV
  Region 1 (Total)                      =      6.79318301 eV
  Region 2a                             =      0.11967366 eV
  Region 2b                             =     -0.18256342 eV
--------------------------------------------------------------------------------
  Total defect energy                   =      6.73029325 eV
--------------------------------------------------------------------------------

  Largest displacement in region 2 =   0.0091 Angstroms

  Final coordinates of region 1 :

--------------------------------------------------------------------------------
   No.  Atomic        x           y           z          Radius      Charge
        Label       (Angs)      (Angs)      (Angs)       (Angs)       (e) 
--------------------------------------------------------------------------------
     1  Sc    c    -3.492732   -2.006269    6.155896    0.000000    3.000000
     2  Sc    c     0.337094    0.203337    6.159726    0.000000    3.000000
     3  Cl    c    -1.814910   -0.489092    5.269485    0.000000    1.485000
     4  Cl    c    -4.335158   -0.259626    7.710601    0.000000    1.485000
     5  Cl    c    -0.754343    1.807147    7.713444    0.000000    1.485000
     6  Cl    c    -3.807221   -3.673556    7.962558    0.000000    1.485000
     7  Cl    c     1.939162   -0.357267    7.965738    0.000000    1.485000
     8  Cl    c    -2.367347   -3.777754    4.833275    0.000000    1.485000
     9  Cl    c     1.307765   -1.657568    4.837162    0.000000    1.485000
    10  Cl    c    -1.068673   -5.628470    7.883061    0.000000    1.485000
    11  Cl    c     2.262366   -3.707426    7.884512    0.000000    1.485000
    12  Cl    c    -1.992564    0.175627   11.399519    0.000000    1.485000
    13  Cl    c     0.832429   -1.817591   11.392201    0.000000    1.485000
    14  Cl    c    -2.000277   -3.808367   11.407230    0.000000    1.485000
    15  Sc    c    -3.112071   -5.583006    6.447127    0.000000    3.000000
    16  Sc    c     3.244673   -1.914047    6.449874    0.000000    3.000000
    17  Cl    c    -5.415866   -1.565988    4.664729    0.000000    1.485000
    18  Cl    c     0.918855    2.088165    4.667759    0.000000    1.485000
    19  Cl    c     1.153816    1.636331   11.396220    0.000000    1.485000
    20  Sc    c     0.004048    0.001340   12.908553    0.000000    3.000000
    21  Cl    c     1.172818   -5.665557    4.925731    0.000000    1.485000
    22  Sc    c     0.002510   -3.638876   12.906235    0.000000    3.000000
    23  Cl    c    -5.442920   -1.819699   11.401668    0.000000    1.485000
    24  Sc    c    -6.425762    0.067763    6.320598    0.000000    3.000000
    25  Sc    c     0.007865    3.780532    6.322358    0.000000    3.000000
    26  Cl    c     1.151661   -5.275241   11.397347    0.000000    1.485000
    27  Sc    c     0.050525   -7.338878    6.417983    0.000000    3.000000
    28  Sc    c     3.183403   -5.530755    6.417544    0.000000    3.000000
    29  Cl    c    -5.477125    1.871663    4.876596    0.000000    1.485000
    30  Cl    c    -2.027870    3.860977    4.877173    0.000000    1.485000
    31  Cl    c    -5.139580    1.631917   11.387197    0.000000    1.485000
    32  Cl    c    -4.281913    3.783903    7.869651    0.000000    1.485000
    33  Cl    c    -7.426099   -1.664153    7.820163    0.000000    1.485000
    34  Cl    c    -1.961949   -7.188246    4.923902    0.000000    1.485000
    35  Cl    c     4.059196   -3.711484    4.924898    0.000000    1.485000
    36  Cl    c     2.008568    3.782797    7.820969    0.000000    1.485000
    37  Cl    c    -4.300773   -7.143207    7.987931    0.000000    1.485000
    38  Cl    c     5.191428   -1.664112    7.988982    0.000000    1.485000
    39  Cl    c     2.031865   -7.153367    7.934332    0.000000    1.485000
    40  Cl    c    -5.167787   -5.600893    5.022830    0.000000    1.485000
    41  Cl    c     4.286545   -0.142915    5.024179    0.000000    1.485000
    42  Sc    c    -3.149732    1.821802   12.899145    0.000000    3.000000
    43  Cl    c    -1.154824   -1.990624    1.472285    0.000000    1.485000
    44  Cl    c    -2.294329    3.635389   11.397401    0.000000    1.485000
    45  Cl    c    -5.139496   -5.271911   11.395882    0.000000    1.485000
    46  Cl    c    -0.865076   -1.818365   14.390572    0.000000    1.485000
    47  Sc    c    -3.149837   -5.457078   12.909822    0.000000    3.000000
    48  Cl    c     4.297082    0.167081   11.404749    0.000000    1.485000
    49  Cl    c    -2.292965   -7.268647   11.406923    0.000000    1.485000
    50  Cl    c     4.294781   -3.800600   11.404584    0.000000    1.485000
    51  Cl    c    -7.133456    1.849490    7.915730    0.000000    1.485000
    52  Cl    c    -1.181701    5.285708    7.915862    0.000000    1.485000
    53  Cl    c    -3.981641   -0.005487    1.479801    0.000000    1.485000
    54  Cl    c    -1.144063    1.659258   14.388973    0.000000    1.485000
    55  Cl    c    -1.144587    1.982044    1.471970    0.000000    1.485000
    56  Cl    c    -4.290381   -3.456616    1.476278    0.000000    1.485000
    57  Sc    c    -6.296792    0.000000   12.900842    0.000000    3.000000
    58  Cl    c     1.990361   -3.450528    1.493822    0.000000    1.485000
    59  Cl    c    -7.445463   -5.591858    7.953605    0.000000    1.485000
    60  Cl    c    -4.282475    0.153685   14.382585    0.000000    1.485000
    61  Cl    c     5.418938    1.834378    7.954285    0.000000    1.485000
    62  Cl    c     2.290215    0.000095    1.478234    0.000000    1.485000
    63  Sc    c    -6.298024   -3.637092   12.903889    0.000000    3.000000
    64  Sc    c     3.154149    1.820110   12.901241    0.000000    3.000000
    65  Cl    c     2.013275    0.158408   14.390245    0.000000    1.485000
    66  Cl    c    -0.856241   -5.448368    1.482504    0.000000    1.485000
    67  Cl    c    -0.856560   -9.112654    7.927917    0.000000    1.485000
    68  Cl    c     5.172299   -5.631681    7.928645    0.000000    1.485000
    69  Cl    c    -1.142674   -5.289761   14.397502    0.000000    1.485000
    70  Sc    c    -6.314931    3.683123    6.408008    0.000000    3.000000
    71  Sc    c    -3.178159    5.493408    6.407016    0.000000    3.000000
    72  Cl    c    -4.287060   -3.788442   14.390085    0.000000    1.485000
    73  Cl    c     2.013289   -3.787732   14.387403    0.000000    1.485000
    74  Sc    c     3.152542   -5.454410   12.901362    0.000000    3.000000
    75  Sc    c    -6.318916   -7.285212    6.493980    0.000000    3.000000
    76  Sc    c     6.321845    0.012681    6.493697    0.000000    3.000000
    77  Cl    c    -8.458507   -0.127355    4.889331    0.000000    1.485000
    78  Cl    c     1.192319    5.442282    4.889061    0.000000    1.485000
    79  Sc    c    -3.148818   -1.819073   -0.040493    0.000000    3.000000
    80  Cl    c    -8.294651    0.171897   11.400027    0.000000    1.485000
    81  Cl    c     3.995342    3.636980   11.395976    0.000000    1.485000
    82  Cl    c    -8.598758   -3.649652    4.938362    0.000000    1.485000
    83  Sc    c     0.003850   -3.640072   -0.022573    0.000000    3.000000
    84  Cl    c     4.313977    3.804003    4.938701    0.000000    1.485000
    85  Cl    c    -8.296795   -3.805265   11.404235    0.000000    1.485000
    86  Cl    c     0.889873   -9.162506    4.932816    0.000000    1.485000
    87  Cl    c     4.343834   -7.169665    4.933318    0.000000    1.485000
    88  Cl    c     1.147660    5.620384   11.403259    0.000000    1.485000
    89  Sc    c    -9.500997   -1.835777    6.410196    0.000000    3.000000
    90  Sc    c     3.193623    5.493128    6.409009    0.000000    3.000000
    91  Cl    c     3.998212   -7.270651   11.398553    0.000000    1.485000
    92  Cl    c    -5.169459    5.320283    4.900739    0.000000    1.485000
    93  Cl    c     1.144620   -9.252170   11.407786    0.000000    1.485000
    94  Cl    c    -4.292094    3.455209    1.487953    0.000000    1.485000
    95  Cl    c     1.993326    3.452286    1.491841    0.000000    1.485000
    96  Sc    c    -3.148234    1.820489   -0.026043    0.000000    3.000000
    97  Cl    c    -4.013790    3.637414   14.387638    0.000000    1.485000
    98  Cl    c    -7.152576   -1.816636   14.395262    0.000000    1.485000
    99  Sc    c    -3.146178    5.457074   12.898751    0.000000    3.000000
   100  Cl    c    -7.433060   -1.982814    1.482304    0.000000    1.485000
   101  Cl    c    -5.148535    5.618021   11.401926    0.000000    1.485000
   102  Cl    c     5.143975   -1.986430    1.491576    0.000000    1.485000
   103  Sc    c     3.151729   -1.819181   -0.016847    0.000000    3.000000
   104  Cl    c     7.143421   -1.816835   11.398547    0.000000    1.485000
   105  Cl    c     2.275121    3.633442   14.386040    0.000000    1.485000
   106  Cl    c    -4.012733   -7.273532   14.397908    0.000000    1.485000
   107  Cl    c    -5.426090   -9.077171    4.993254    0.000000    1.485000
   108  Cl    c     7.427819   -1.656906    4.993875    0.000000    1.485000
   109  Sc    c     6.300514   -0.000970   12.905779    0.000000    3.000000
   110  Cl    c    -4.291505   -7.433175    1.489234    0.000000    1.485000
   111  Cl    c     1.999612   -7.429828    1.490096    0.000000    1.485000
   112  Sc    c    -3.145670   -9.091710   12.905785    0.000000    3.000000
   113  Sc    c     6.299405   -3.635164   12.903227    0.000000    3.000000
   114  Sc    c    -9.453564   -5.460476    6.452072    0.000000    3.000000
   115  Sc    c     6.308964    3.639739    6.453356    0.000000    3.000000
   116  Cl    c     5.424419   -1.818191   14.390173    0.000000    1.485000
   117  Cl    c     2.277064   -7.267287   14.388852    0.000000    1.485000
   118  Cl    c    -5.149794   -9.248962   11.410978    0.000000    1.485000
   119  Cl    c    -7.446023    5.312310    7.928182    0.000000    1.485000
   120  Cl    c    -4.023841    7.286665    7.928224    0.000000    1.485000
   121  Cl    c   -10.294108   -3.638320    7.951862    0.000000    1.485000
   122  Cl    c     5.150566    5.279483    7.951777    0.000000    1.485000
   123  Cl    c    -8.332455    3.812561    4.937418    0.000000    1.485000
   124  Cl    c    -2.281664    7.306289    4.937581    0.000000    1.485000
   125  Cl    c    -1.993816    7.095593   11.394162    0.000000    1.485000
   126  Sc    c    -0.001177  -10.953645    6.450127    0.000000    3.000000
   127  Cl    c    -8.287512   -7.100820    4.960851    0.000000    1.485000
   128  Sc    c     6.339911   -7.292864    6.451615    0.000000    3.000000
   129  Cl    c     7.146279    1.810272    4.961242    0.000000    1.485000
   130  Cl    c   -10.588014   -0.167161    7.924725    0.000000    1.485000
   131  Cl    c     2.291761    7.268139    7.924315    0.000000    1.485000
   132  Cl    c    -0.854818    5.443915    1.487924    0.000000    1.485000
   133  Sc    c     0.003800    3.639028   -0.021918    0.000000    3.000000
   134  Cl    c    -7.136046   -5.450367    1.497005    0.000000    1.485000
   135  Cl    c    -7.169446   -9.106152    7.979544    0.000000    1.485000
   136  Cl    c     8.323703   -0.160646    7.979918    0.000000    1.485000
   137  Cl    c    -2.283982    0.004992   -1.519178    0.000000    1.485000
   138  Cl    c    -1.997537   -3.476499   -1.518672    0.000000    1.485000
   139  Cl    c    -7.430395    1.661925   14.389046    0.000000    1.485000
   140  Sc    c    -6.299460   -3.639392   -0.017442    0.000000    3.000000
   141  Sc    c     3.152066    1.819420   -0.017842    0.000000    3.000000
   142  Cl    c     5.153839    1.654370   14.396441    0.000000    1.485000
   143  Cl    c    -7.432505    1.980791    1.487185    0.000000    1.485000
   144  Cl    c     1.141965   -1.974337   -1.504699    0.000000    1.485000
   145  Sc    c     3.149534    5.455180   12.902739    0.000000    3.000000
   146  Cl    c     5.144896    1.982300    1.490073    0.000000    1.485000
   147  Cl    c    -1.151809   -8.909152    1.500186    0.000000    1.485000
   148  Cl    c    -1.136719    5.604689   14.385252    0.000000    1.485000
   149  Cl    c    -8.581987    3.635164   11.408541    0.000000    1.485000
   150  Cl    c    -7.434549   -5.294652   14.394590    0.000000    1.485000
   151  Sc    c    -0.000573   -7.275459   -0.010097    0.000000    3.000000
   152  Cl    c     5.152178   -5.286468   14.397295    0.000000    1.485000
   153  Cl    c    -1.995612  -10.731531   11.401844    0.000000    1.485000
   154  Cl    c     7.439389    1.652314   11.408119    0.000000    1.485000
   155  Cl    c    -2.011478  -11.074612    4.962902    0.000000    1.485000
   156  Cl    c     7.448893   -5.612610    4.963333    0.000000    1.485000
   157  Cl    c    -4.292144  -11.062700    7.953208    0.000000    1.485000
   158  Cl    c     8.579981   -3.631954    7.953525    0.000000    1.485000
   159  Cl    c     5.432755   -5.448864    1.490684    0.000000    1.485000
   160  Cl    c     1.999518  -11.074540    7.950154    0.000000    1.485000
   161  Cl    c     5.444243   -9.086923    7.950376    0.000000    1.485000
   162  Cl    c    -8.582049   -7.266916   11.410683    0.000000    1.485000
   163  Sc    c     3.149189   -9.088861   12.903185    0.000000    3.000000
   164  Cl    c     7.441142   -5.286723   11.406633    0.000000    1.485000
   165  Cl    c    -1.136820   -9.240603   14.393017    0.000000    1.485000
   166  Cl    c    -2.291899   -0.000097   17.863037    0.000000    1.485000
   167  Cl    c    -1.999866   -3.465310   17.862432    0.000000    1.485000
   168  Cl    c    -5.162263   -1.982703   -1.515037    0.000000    1.485000
   169  Cl    c     1.144619   -1.984864   17.863529    0.000000    1.485000
   170  Sc    c    -9.443896    1.818907   12.903864    0.000000    3.000000
   171  Sc    c     0.002183    7.272768   12.901373    0.000000    3.000000
   172  Cl    c     1.143305    1.975241   -1.506416    0.000000    1.485000
   173  Cl    c     0.867921   -5.460486   -1.504723    0.000000    1.485000
   174  Sc    c    -9.446334   -5.452904   12.907123    0.000000    3.000000
   175  Sc    c     0.002599  -10.906310   12.906214    0.000000    3.000000
   176  Cl    c   -11.516574   -1.669383    4.942720    0.000000    1.485000
   177  Cl    c     4.057143    7.322521    4.942316    0.000000    1.485000
   178  Sc    c    -6.302608  -10.911727    6.466604    0.000000    3.000000
   179  Sc    c     9.454428   -1.814582    6.467925    0.000000    3.000000
   180  Cl    c    -2.001565    3.474887   -1.512431    0.000000    1.485000
   181  Cl    c    -5.148589   -1.984314   17.863780    0.000000    1.485000
   182  Sc    c    -6.296335    3.637637   -0.010717    0.000000    3.000000
   183  Cl    c    -5.160291    1.975648   -1.504895    0.000000    1.485000
   184  Cl    c     4.008498   -0.000677   -1.508226    0.000000    1.485000
   185  Cl    c     1.145238    1.982695   17.864493    0.000000    1.485000
   186  Cl    c   -10.580073    3.796026    7.938361    0.000000    1.485000
   187  Cl    c    -1.143453    9.244196    7.938285    0.000000    1.485000
   188  Cl    c     0.855617   -5.450113   17.863366    0.000000    1.485000
   189  Cl    c     4.296245    7.103839   11.406178    0.000000    1.485000
   190  Cl    c   -10.586603   -7.113068    7.949328    0.000000    1.485000
   191  Cl    c     8.307465    3.795290    7.949397    0.000000    1.485000
   192  Cl    c    -1.162878  -12.572667    7.962057    0.000000    1.485000
   193  Cl    c     8.323670   -7.095880    7.962326    0.000000    1.485000
   194  Sc    c    -6.296348   -7.274161   -0.006754    0.000000    3.000000
   195  Sc    c    -9.465691    5.469139    6.445280    0.000000    3.000000
   196  Sc    c    -3.150317    9.115090    6.446271    0.000000    3.000000
   197  Cl    c    -5.425413   -5.457287   -1.498874    0.000000    1.485000
   198  Cl    c     4.292308   -3.481160   -1.498844    0.000000    1.485000
   199  Sc    c    -3.148748   -9.090874   -0.005111    0.000000    3.000000
   200  Sc    c     6.300157   -3.635557   -0.004951    0.000000    3.000000
   201  Cl    c    -2.010650   -7.427272   -1.495194    0.000000    1.485000
   202  Cl    c   -11.727686   -1.816835   11.412466    0.000000    1.485000
   203  Cl    c     4.295609  -10.738261   11.407472    0.000000    1.485000
   204  Cl    c    -2.001785    3.464881   17.863210    0.000000    1.485000
   205  Cl    c    -7.143687    5.448908    1.496806    0.000000    1.485000
   206  Cl    c   -10.283846    0.000422    1.500542    0.000000    1.485000
   207  Cl    c     4.286755  -11.059467    4.973543    0.000000    1.485000
   208  Cl    c    -5.148292    1.983528   17.864225    0.000000    1.485000
   209  Cl    c    -4.288512    7.107184   14.393895    0.000000    1.485000
   210  Cl    c     2.001871    7.101753   14.399576    0.000000    1.485000
   211  Cl    c   -11.443428    1.646645   11.405797    0.000000    1.485000
   212  Cl    c     4.001179   -0.000136   17.862654    0.000000    1.485000
   213  Sc    c    -3.161840  -12.726866    6.457574    0.000000    3.000000
   214  Sc    c     9.455819   -5.442129    6.456769    0.000000    3.000000
   215  Cl    c   -11.450987   -5.617735    4.954238    0.000000    1.485000
   216  Cl    c     7.443039    5.290376    4.954166    0.000000    1.485000
   217  Sc    c    -6.295599    7.269140   12.902033    0.000000    3.000000
   218  Sc    c    -9.443862   -1.815046   -0.008355    0.000000    3.000000
   219  Cl    c     0.860923    9.090731   11.408314    0.000000    1.485000
   220  Cl    c   -11.444512   -5.279698   11.406685    0.000000    1.485000
   221  Cl    c   -11.726964    1.820650    4.959426    0.000000    1.485000
   222  Cl    c     1.140537    9.249055    4.958998    0.000000    1.485000
   223  Cl    c    -5.436042   -5.450351   17.864774    0.000000    1.485000
   224  Cl    c     4.292713   -3.467792   17.864059    0.000000    1.485000
   225  Cl    c    -4.288538    7.430256    1.491267    0.000000    1.485000
   226  Cl    c     2.003622    7.432233    1.491863    0.000000    1.485000
   227  Cl    c   -10.579076   -3.468127    1.493541    0.000000    1.485000
   228  Cl    c     1.152476  -12.597555    4.960059    0.000000    1.485000
   229  Cl    c     7.186648   -9.112920    4.960216    0.000000    1.485000
   230  Cl    c    -7.441114   -8.918694    1.495510    0.000000    1.485000
   231  Cl    c     8.295733   -3.462036    1.498365    0.000000    1.485000
   232  Cl    c    -2.003464   -7.432531   17.865283    0.000000    1.485000
   233  Cl    c     5.145580   -8.910199    1.500504    0.000000    1.485000
   234  Cl    c    -7.429761    5.605776   14.392935    0.000000    1.485000
   235  Cl    c   -10.577315    0.157442   14.395229    0.000000    1.485000
   236  Cl    c     5.433054    5.445553    1.493292    0.000000    1.485000
   237  Cl    c     5.153771    5.607720   14.394804    0.000000    1.485000
   238  Cl    c    -4.006747  -10.904545    1.493417    0.000000    1.485000
   239  Cl    c     8.302297    0.161659   14.399004    0.000000    1.485000
   240  Sc    c   -12.610751    0.012136    6.450006    0.000000    3.000000
   241  Cl    c    -4.289597  -10.740665   14.401726    0.000000    1.485000
   242  Sc    c     3.148008    9.110151    6.450466    0.000000    3.000000
   243  Sc    c    -3.146979   -1.817444   19.362364    0.000000    3.000000
   244  Cl    c     2.003673  -10.734796   14.402894    0.000000    1.485000
   245  Cl    c   -10.580494   -3.790265   14.396792    0.000000    1.485000
   246  Sc    c     3.149235   -9.085880   -0.002669    0.000000    3.000000
   247  Cl    c     8.301109   -3.793998   14.397399    0.000000    1.485000
   248  Sc    c     0.000160   -3.634477   19.363847    0.000000    3.000000
   249  Sc    c    -6.295351  -10.902821   12.908609    0.000000    3.000000
   250  Cl    c     8.580684   -0.000428    1.492204    0.000000    1.485000
   251  Cl    c     7.438208    5.614122   11.412821    0.000000    1.485000
   252  Cl    c     2.286336  -10.898535    1.495216    0.000000    1.485000
   253  Cl    c    -8.295054    7.095115   11.402452    0.000000    1.485000
   254  Cl    c     0.861001  -12.721896   11.409996    0.000000    1.485000
   255  Cl    c    -7.433459   -9.240606   14.397751    0.000000    1.485000
   256  Cl    c     5.153382   -9.241308   14.395936    0.000000    1.485000
   257  Cl    c     0.868005    5.461144   -1.501837    0.000000    1.485000
   258  Cl    c    -8.305196   -3.471884   -1.503860    0.000000    1.485000
   259  Sc    c    -9.441559    1.818599   -0.004942    0.000000    3.000000
   260  Cl    c    -8.585469    7.276006    4.953030    0.000000    1.485000
   261  Cl    c    -5.154545    9.255854    4.952991    0.000000    1.485000
   262  Sc    c    -0.000454    7.272949   -0.002196    0.000000    3.000000
   263  Sc    c    -9.441876    5.452137   12.907984    0.000000    3.000000
   264  Sc    c     3.155757  -12.728149    6.462153    0.000000    3.000000
   265  Sc    c     6.298095  -10.914060    6.461048    0.000000    3.000000
   266  Cl    c     4.293944    3.479876   -1.500466    0.000000    1.485000
   267  Cl    c    -5.155828  -12.542819    4.952599    0.000000    1.485000
   268  Cl    c    10.293348   -3.622497    4.952748    0.000000    1.485000
   269  Cl    c     7.436855   -9.247516   11.413017    0.000000    1.485000
   270  Cl    c    -5.433095    9.084838   11.406895    0.000000    1.485000
   271  Sc    c     6.299918    3.633823   -0.004214    0.000000    3.000000
   272  Cl    c    -8.571322    0.002109   -1.495236    0.000000    1.485000
   273  Cl    c    -8.292659  -10.730190   11.405728    0.000000    1.485000
   274  Cl    c     1.145142   -8.928450   -1.499207    0.000000    1.485000
   275  Sc    c    -3.147396    1.816286   19.363575    0.000000    3.000000
   276  Cl    c    -8.302803  -11.056144    4.968413    0.000000    1.485000
   277  Cl    c    10.578687   -0.155041    4.968442    0.000000    1.485000
   278  Sc    c    -9.441771   -9.086034   12.907516    0.000000    3.000000
   279  Sc    c     9.444181    1.820244   12.906260    0.000000    3.000000
   280  Sc    c     6.295460   -7.268494   -0.003943    0.000000    3.000000
   281  Sc    c     3.147159   -1.817909   19.361773    0.000000    3.000000
   282  Cl    c     4.286131   -7.424141   -1.493012    0.000000    1.485000
   283  Cl    c    -1.150906    8.913020    1.501096    0.000000    1.485000
   284  Sc    c     9.444159   -5.454365   12.907091    0.000000    3.000000
   285  Cl    c   -10.297856    3.633217   14.402847    0.000000    1.485000
   286  Cl    c     0.854456    5.448730   17.860803    0.000000    1.485000
   287  Cl    c    10.582011    0.163667   11.410652    0.000000    1.485000
   288  Cl    c    -5.433595  -12.715221   11.409797    0.000000    1.485000
   289  Cl    c    -8.291519   -3.464864   17.859771    0.000000    1.485000
   290  Cl    c     4.290024    3.464687   17.861495    0.000000    1.485000
   291  Cl    c    10.580885   -3.796767   11.411237    0.000000    1.485000
   292  Cl    c   -10.582209    3.466957    1.496330    0.000000    1.485000
   293  Cl    c    -5.424986    5.454867   -1.495321    0.000000    1.485000
   294  Cl    c     8.294806    3.461008    1.500073    0.000000    1.485000
   295  Cl    c    -8.580952    0.000277   17.861646    0.000000    1.485000
   296  Cl    c    -0.865627    9.083351   14.396214    0.000000    1.485000
   297  Cl    c    -5.149835   -8.922982   -1.501797    0.000000    1.485000
   298  Cl    c    -7.432465    9.240653    7.941178    0.000000    1.485000
   299  Cl    c   -10.300815   -7.268816   14.403384    0.000000    1.485000
   300  Cl    c   -13.729895   -1.651432    7.949306    0.000000    1.485000
   301  Cl    c     1.145623   -8.914342   17.859844    0.000000    1.485000
   302  Cl    c     5.148897    9.248140    7.948867    0.000000    1.485000
   303  Sc    c   -12.589951   -0.000437   12.909104    0.000000    3.000000
   304  Cl    c    -7.445083  -12.566231    7.955565    0.000000    1.485000
   305  Cl    c    11.459402   -1.652064    7.955558    0.000000    1.485000
   306  Cl    c     5.152639  -12.557682    7.963441    0.000000    1.485000
   307  Sc    c   -12.591688   -3.632482   12.908862    0.000000    3.000000
   308  Sc    c     6.297916    7.270519   12.907779    0.000000    3.000000
   309  Sc    c   -12.594022    3.637490    6.453201    0.000000    3.000000
   310  Sc    c     0.000067   10.908599    6.451984    0.000000    3.000000
   311  Sc    c    -0.000228    3.633729   19.362342    0.000000    3.000000
   312  Sc    c    -6.293860   -3.634419   19.363465    0.000000    3.000000
   313  Sc    c     3.147196    1.816280   19.363660    0.000000    3.000000
   314  Cl    c   -11.462848    5.291102    4.948361    0.000000    1.485000
   315  Cl    c    -1.998393   10.755399    4.948355    0.000000    1.485000
   316  Cl    c     7.435117   -1.972788   -1.493304    0.000000    1.485000
   317  Cl    c   -10.306558    7.279338    7.953194    0.000000    1.485000
   318  Cl    c    -4.298287   10.748881    7.953065    0.000000    1.485000
   319  Cl    c   -13.441187    1.825694    7.961483    0.000000    1.485000
   320  Cl    c     1.992269   10.736730    7.961004    0.000000    1.485000
   321  Cl    c     4.289301   -7.430733   17.862309    0.000000    1.485000
   322  Cl    c   -10.579771   -7.427238    1.492080    0.000000    1.485000
   323  Cl    c     8.294096   -7.430125    1.496475    0.000000    1.485000
   324  Sc    c   -12.594729   -7.271935    6.453347    0.000000    3.000000
   325  Sc    c     9.448177    5.454528    6.452161    0.000000    3.000000
   326  Sc    c    -0.000203   -7.268237   19.361802    0.000000    3.000000
   327  Cl    c    -8.299961    3.471224   -1.501718    0.000000    1.485000
   328  Cl    c     8.573134    3.634363   14.397244    0.000000    1.485000
   329  Cl    c    -0.854329   -1.817012   -4.953149    0.000000    1.485000
   330  Cl    c    -0.863772  -12.719308   14.399136    0.000000    1.485000
   331  Sc    c     6.297271  -10.904058   12.908672    0.000000    3.000000
   332  Sc    c    -6.294874    7.271403   -0.002180    0.000000    3.000000
   333  Cl    c    -1.143314  -12.875737    1.492515    0.000000    1.485000
   334  Cl    c    -5.435824    5.449069   17.862335    0.000000    1.485000
   335  Cl    c    -1.141274   -1.976071   20.854200    0.000000    1.485000
   336  Cl    c    -5.146085   -8.914242   17.860713    0.000000    1.485000
   337  Cl    c     8.573746   -7.269008   14.397414    0.000000    1.485000
   338  Cl    c   -11.441574    5.613730   11.408895    0.000000    1.485000
   339  Cl    c    -2.007604    7.424847   -1.491859    0.000000    1.485000
   340  Cl    c    10.294491    3.636792   11.405844    0.000000    1.485000
   341  Cl    c     7.155341   -5.452128   -1.499977    0.000000    1.485000
   342  Cl    c    -8.303704   -7.426419   -1.494021    0.000000    1.485000
   343  Cl    c     7.435620   -1.982523   17.862901    0.000000    1.485000
   344  Cl    c   -13.723621   -5.604731    7.942645    0.000000    1.485000
   345  Cl    c     8.568885    7.264923    7.942672    0.000000    1.485000
   346  Cl    c    -2.003679   11.059102   11.413195    0.000000    1.485000
   347  Sc    c     9.445460   -1.816112   -0.003730    0.000000    3.000000
   348  Cl    c    -4.023472  -14.541712    7.949377    0.000000    1.485000
   349  Cl    c    11.457678   -5.602911    7.949582    0.000000    1.485000
   350  Cl    c     7.436149    1.972202   -1.492966    0.000000    1.485000
   351  Cl    c    -2.280430  -10.904445   -1.495363    0.000000    1.485000
   352  Cl    c    10.295869   -7.269793   11.406377    0.000000    1.485000
   353  Cl    c    -1.148513    1.645371   -4.950846    0.000000    1.485000
   354  Cl    c   -11.719101   -9.082431    4.960783    0.000000    1.485000
   355  Cl    c    10.579199    3.790626    4.960742    0.000000    1.485000
   356  Cl    c   -11.442336   -9.247244   11.409502    0.000000    1.485000
   357  Cl    c    -8.292058    3.463001   17.858660    0.000000    1.485000
   358  Cl    c    -2.289142  -14.531466    4.957916    0.000000    1.485000
   359  Cl    c    10.583049   -7.100498    4.958081    0.000000    1.485000
   360  Cl    c   -10.579011  -11.056892    7.943293    0.000000    1.485000
   361  Cl    c    11.718260    1.815524    7.943312    0.000000    1.485000
   362  Cl    c    -4.291747    0.167372   -4.953355    0.000000    1.485000
   363  Cl    c     1.999519    0.170251   -4.951593    0.000000    1.485000
   364  Cl    c    -1.148246   -5.277277   -4.950160    0.000000    1.485000
   365  Cl    c     2.289577  -14.539475    7.957086    0.000000    1.485000
   366  Cl    c     8.299025  -11.069137    7.957218    0.000000    1.485000
   367  Cl    c    -4.010544   -0.001232   20.855239    0.000000    1.485000
   368  Cl    c    -4.292041   -3.799298   -4.954155    0.000000    1.485000
   369  Cl    c     1.999540   -3.801729   -4.952642    0.000000    1.485000
   370  Sc    c    -3.148381    9.088351   -0.003935    0.000000    3.000000
   371  Cl    c    -1.140804    1.975680   20.854009    0.000000    1.485000
   372  Cl    c    -4.287435   -3.474005   20.854727    0.000000    1.485000
   373  Cl    c     2.005239   -3.472835   20.855638    0.000000    1.485000
   374  Cl    c    -2.002874    7.429890   17.862009    0.000000    1.485000
   375  Cl    c     2.281278   -0.001547   20.853660    0.000000    1.485000
   376  Cl    c    -0.864775   -5.451377   20.854537    0.000000    1.485000
   377  Cl    c     7.145345   -5.448873   17.858617    0.000000    1.485000
   378  Sc    c     0.000576   10.906550   12.909429    0.000000    3.000000
   379  Cl    c    -8.294466   -7.432744   17.861571    0.000000    1.485000
   380  Cl    c    -2.004977  -14.692549   11.413622    0.000000    1.485000
   381  Sc    c    -9.443630    9.092876    6.453061    0.000000    3.000000
   382  Sc    c    -6.299633   10.907989    6.451861    0.000000    3.000000
   383  Sc    c    -6.294763    3.634622   19.362336    0.000000    3.000000
   384  Cl    c     7.436547    1.979994   17.862070    0.000000    1.485000
   385  Sc    c    -9.445143   -9.087886   -0.003026    0.000000    3.000000
   386  Sc    c     9.445644    1.816723   -0.002404    0.000000    3.000000
   387  Cl    c    -2.290234  -10.898710   17.861156    0.000000    1.485000
   388  Sc    c     9.443765    5.453223   12.908918    0.000000    3.000000
   389  Sc    c    -3.147320  -12.723881   -0.004070    0.000000    3.000000
   390  Sc    c    -6.294380   -7.268746   19.361854    0.000000    3.000000
   391  Cl    c   -14.611201   -0.150163    4.956506    0.000000    1.485000
   392  Sc    c    -3.147354   -9.085584   19.363029    0.000000    3.000000
   393  Cl    c     4.288237   10.761261    4.956236    0.000000    1.485000
   394  Sc    c     6.295291   -3.634327   19.363294    0.000000    3.000000
   395  Cl    c    -7.440935    8.912282    1.502165    0.000000    1.485000
   396  Cl    c     5.141080    8.906563    1.504683    0.000000    1.485000
   397  Cl    c    -7.155277    9.081774   14.398881    0.000000    1.485000
   398  Sc    c     0.000588  -14.539918   12.907848    0.000000    3.000000
   399  Cl    c   -13.443906   -1.816071   14.407500    0.000000    1.485000
   400  Sc    c     9.443390   -9.087291   12.907295    0.000000    3.000000
   401  Sc    c    -9.446606  -12.723411    6.453581    0.000000    3.000000
   402  Sc    c    12.595259    0.002455    6.452392    0.000000    3.000000
   403  Cl    c   -11.449483   -1.976180   -1.495785    0.000000    1.485000
   404  Sc    c     3.149099    9.088252   -0.004473    0.000000    3.000000
   405  Cl    c   -14.586265    0.167143   11.406486    0.000000    1.485000
   406  Cl    s    -1.763776   -0.577936    5.454264    0.000000   -2.485000
   407  Cl    s    -3.719512   -3.656028    7.687489    0.000000   -2.485000
   408  Cl    s     1.880180   -0.424618    7.690672    0.000000   -2.485000
   409  Cl    s    -4.401387   -0.393994    7.473844    0.000000   -2.485000
   410  Cl    s    -0.604815    1.797296    7.476620    0.000000   -2.485000
   411  Cl    s    -2.521963   -3.743116    5.071846    0.000000   -2.485000
   412  Cl    s     1.355016   -1.506040    5.075575    0.000000   -2.485000
   413  Cl    s    -1.151147   -5.746849    7.653928    0.000000   -2.485000
   414  Cl    s     2.406093   -3.694736    7.655354    0.000000   -2.485000
   415  Cl    s     0.700254   -1.816007   11.615558    0.000000   -2.485000
   416  Cl    s    -1.925590    0.287802   11.618526    0.000000   -2.485000
   417  Cl    s    -1.932678   -3.920604   11.629053    0.000000   -2.485000
   418  Cl    s    -5.301762   -1.489361    4.922211    0.000000   -2.485000
   419  Cl    s     0.795055    2.027410    4.925318    0.000000   -2.485000
   420  Cl    s     1.217443    1.519298   11.622276    0.000000   -2.485000
   421  Cl    s     1.239646   -5.781037    5.158960    0.000000   -2.485000
   422  Cl    s     1.215407   -5.157094   11.626285    0.000000   -2.485000
   423  Cl    s    -5.573998   -1.819023   11.626587    0.000000   -2.485000
   424  Cl    s    -1.901802   -7.061543    5.164679    0.000000   -2.485000
   425  Cl    s     3.919467   -3.700646    5.165653    0.000000   -2.485000
   426  Cl    s     1.963227   -7.034675    7.693322    0.000000   -2.485000
   427  Cl    s    -5.613227    1.857133    5.110590    0.000000   -2.485000
   428  Cl    s    -1.947581    3.971782    5.111140    0.000000   -2.485000
   429  Cl    s    -4.355419   -7.019342    7.747114    0.000000   -2.485000
   430  Cl    s     5.110980   -1.555066    7.748175    0.000000   -2.485000
   431  Cl    s    -5.071206    1.517309   11.616332    0.000000   -2.485000
   432  Cl    s    -5.086088   -5.716964    5.252104    0.000000   -2.485000
   433  Cl    s     4.346633   -0.271554    5.253449    0.000000   -2.485000
   434  Cl    s    -0.726466   -1.817235   14.154941    0.000000   -2.485000
   435  Cl    s    -7.495781   -1.538072    7.589557    0.000000   -2.485000
   436  Cl    s     1.933866    3.905785    7.590351    0.000000   -2.485000
   437  Cl    s    -4.352669    3.906125    7.640167    0.000000   -2.485000
   438  Cl    s    -5.071885   -5.156029   11.624713    0.000000   -2.485000
   439  Cl    s    -2.427897    3.631385   11.624851    0.000000   -2.485000
   440  Cl    s    -1.221531   -2.103297    1.252483    0.000000   -2.485000
   441  Cl    s    -7.006764    1.841692    7.667842    0.000000   -2.485000
   442  Cl    s    -1.238050    5.171864    7.668020    0.000000   -2.485000
   443  Cl    s    -2.427738   -7.264881   11.635211    0.000000   -2.485000
   444  Cl    s     4.360563    0.283958   11.631657    0.000000   -2.485000
   445  Cl    s    -1.211593    1.538203   14.152857    0.000000   -2.485000
   446  Cl    s     4.359582   -3.916776   11.632208    0.000000   -2.485000
   447  Cl    s    -1.210855   -5.169702   14.161279    0.000000   -2.485000
   448  Cl    s     1.940786    0.276782   14.154905    0.000000   -2.485000
   449  Cl    s    -4.350943    0.274438   14.148180    0.000000   -2.485000
   450  Cl    s    -3.848528   -0.006991    1.256524    0.000000   -2.485000
   451  Cl    s     1.940736   -3.906420   14.153039    0.000000   -2.485000
   452  Cl    s    -4.355103   -3.908978   14.155921    0.000000   -2.485000
   453  Cl    s    -0.718381   -9.107443    7.693547    0.000000   -2.485000
   454  Cl    s     5.099043   -5.748934    7.694266    0.000000   -2.485000
   455  Cl    s     1.922486   -3.335531    1.264698    0.000000   -2.485000
   456  Cl    s    -7.507040   -5.714260    7.722295    0.000000   -2.485000
   457  Cl    s    -4.355345   -3.338514    1.253110    0.000000   -2.485000
   458  Cl    s     5.555684    1.826862    7.722956    0.000000   -2.485000
   459  Cl    s    -1.211879    2.094858    1.250426    0.000000   -2.485000
   460  Cl    s    -0.722085   -5.444795    1.255589    0.000000   -2.485000
   461  Cl    s    -8.364193   -0.243013    5.122638    0.000000   -2.485000
   462  Cl    s     1.245673    5.303197    5.122462    0.000000   -2.485000
   463  Cl    s     2.421276   -0.000009    1.255863    0.000000   -2.485000
   464  Cl    s     0.751424   -9.149028    5.168725    0.000000   -2.485000
   465  Cl    s     4.401033   -7.042814    5.169299    0.000000   -2.485000
   466  Cl    s     3.860651    3.634049   11.626789    0.000000   -2.485000
   467  Cl    s    -8.223900    0.286766   11.629507    0.000000   -2.485000
   468  Cl    s    -8.732072   -3.644092    5.170733    0.000000   -2.485000
   469  Cl    s     4.375504    3.922479    5.171103    0.000000   -2.485000
   470  Cl    s    -5.099884    5.200059    5.139219    0.000000   -2.485000
   471  Cl    s    -8.225969   -3.920037   11.634146    0.000000   -2.485000
   472  Cl    s     3.863074   -7.267619   11.629919    0.000000   -2.485000
   473  Cl    s    -7.015156   -1.816427   14.159219    0.000000   -2.485000
   474  Cl    s     1.214627    5.735357   11.631776    0.000000   -2.485000
   475  Cl    s    -3.875361    3.634380   14.152489    0.000000   -2.485000
   476  Cl    s     1.925491    3.335761    1.263192    0.000000   -2.485000
   477  Cl    s    -3.874707   -7.269584   14.162966    0.000000   -2.485000
   478  Cl    s    -4.356568    3.337339    1.258171    0.000000   -2.485000
   479  Cl    s     1.212526   -9.367626   11.637489    0.000000   -2.485000
   480  Cl    s     2.413633    3.631219   14.152523    0.000000   -2.485000
   481  Cl    s     7.008153   -1.816378   11.629971    0.000000   -2.485000
   482  Cl    s    -5.563580   -9.071665    5.225460    0.000000   -2.485000
   483  Cl    s     7.491474   -1.534949    5.226052    0.000000   -2.485000
   484  Cl    s     5.073731   -2.101752    1.262099    0.000000   -2.485000
   485  Cl    s    -5.078799    5.733046   11.631403    0.000000   -2.485000
   486  Cl    s     2.414999   -7.264471   14.155503    0.000000   -2.485000
   487  Cl    s    -7.497329   -2.100176    1.256011    0.000000   -2.485000
   488  Cl    s     5.562162   -1.817301   14.156929    0.000000   -2.485000
   489  Cl    s   -10.160561   -3.636822    7.711648    0.000000   -2.485000
   490  Cl    s     5.082789    5.164355    7.711659    0.000000   -2.485000
   491  Cl    s    -8.219930   -6.983173    5.199221    0.000000   -2.485000
   492  Cl    s     7.010641    1.810262    5.199676    0.000000   -2.485000
   493  Cl    s    -7.508697    5.189850    7.692174    0.000000   -2.485000
   494  Cl    s    -3.886433    7.280138    7.692289    0.000000   -2.485000
   495  Cl    s    -1.930922   -3.355261   -1.282363    0.000000   -2.485000
   496  Cl    s    -8.254802    3.927663    5.170974    0.000000   -2.485000
   497  Cl    s    -2.420192    7.296149    5.171171    0.000000   -2.485000
   498  Cl    s    -2.422047    0.002640   -1.283320    0.000000   -2.485000
   499  Cl    s     5.083434    1.536176   14.160999    0.000000   -2.485000
   500  Cl    s     1.930064   -7.545524    1.260768    0.000000   -2.485000
   501  Cl    s    -1.927876    6.977777   11.625534    0.000000   -2.485000
   502  Cl    s    -4.358814   -7.548753    1.261321    0.000000   -2.485000
   503  Cl    s    -5.080054   -9.364186   11.640535    0.000000   -2.485000
   504  Cl    s    -7.496962    1.540545   14.155002    0.000000   -2.485000
   505  Cl    s     1.209639   -2.094740   -1.270049    0.000000   -2.485000
   506  Cl    s    -7.031200   -9.096108    7.744098    0.000000   -2.485000
   507  Cl    s     8.246169   -0.275575    7.744535    0.000000   -2.485000
   508  Cl    s     5.082260   -5.168390   14.161788    0.000000   -2.485000
   509  Cl    s   -10.654147   -0.287408    7.691072    0.000000   -2.485000
   510  Cl    s     2.429037    7.265675    7.690735    0.000000   -2.485000
   511  Cl    s    -7.500964   -5.173595   14.160260    0.000000   -2.485000
   512  Cl    s    -7.001948   -5.447830    1.265580    0.000000   -2.485000
   513  Cl    s    -1.207110    5.723380   14.152018    0.000000   -2.485000
   514  Cl    s    -0.719615    5.441231    1.259057    0.000000   -2.485000
   515  Cl    s    -1.217940   -8.791685    1.268319    0.000000   -2.485000
   516  Cl    s    -1.929761  -10.613349   11.633996    0.000000   -2.485000
   517  Cl    s     5.074584    2.097686    1.259978    0.000000   -2.485000
   518  Cl    s    -7.498458    2.097397    1.259168    0.000000   -2.485000
   519  Cl    s    -8.716112    3.632829   11.638139    0.000000   -2.485000
   520  Cl    s     7.504435    1.533562   11.638225    0.000000   -2.485000
   521  Cl    s    -1.941528  -11.191860    5.195349    0.000000   -2.485000
   522  Cl    s     7.515840   -5.731640    5.195729    0.000000   -2.485000
   523  Cl    s    -1.207152   -9.358853   14.159954    0.000000   -2.485000
   524  Cl    s    -5.088769   -2.100095   -1.279710    0.000000   -2.485000
   525  Cl    s     1.930291  -11.192638    7.716832    0.000000   -2.485000
   526  Cl    s     5.581085   -9.085596    7.717046    0.000000   -2.485000
   527  Cl    s    -4.362081  -11.179240    7.720815    0.000000   -2.485000
   528  Cl    s     8.715846   -3.629264    7.721096    0.000000   -2.485000
   529  Cl    s     7.505753   -5.167658   11.637651    0.000000   -2.485000
   530  Cl    s     0.729382   -5.456235   -1.269810    0.000000   -2.485000
   531  Cl    s    -8.716553   -7.265070   11.640461    0.000000   -2.485000
   532  Cl    s     1.211214    2.094885   -1.272038    0.000000   -2.485000
   533  Cl    s     5.567350   -5.446713    1.261284    0.000000   -2.485000
   534  Cl    s    -1.932694   -3.348255   18.092685    0.000000   -2.485000
   535  Cl    s    -2.426667   -0.000376   18.093000    0.000000   -2.485000
   536  Cl    s    -1.933635    3.354263   -1.276810    0.000000   -2.485000
   537  Cl    s     1.211957   -2.101651   18.093436    0.000000   -2.485000
   538  Cl    s   -11.435294   -1.552080    5.175956    0.000000   -2.485000
   539  Cl    s     3.914906    7.310455    5.175825    0.000000   -2.485000
   540  Cl    s     3.870571   -0.001004   -1.272585    0.000000   -2.485000
   541  Cl    s    -5.087264    2.093293   -1.270519    0.000000   -2.485000
   542  Cl    s    -1.227190  -12.452753    7.725323    0.000000   -2.485000
   543  Cl    s     8.251650   -6.980403    7.725540    0.000000   -2.485000
   544  Cl    s     4.357266   -3.359179   -1.264852    0.000000   -2.485000
   545  Cl    s    -5.563180   -5.453625   -1.265112    0.000000   -2.485000
   546  Cl    s     4.361563    6.984789   11.637365    0.000000   -2.485000
   547  Cl    s   -10.650156   -6.991358    7.715113    0.000000   -2.485000
   548  Cl    s     8.233508    3.910940    7.715139    0.000000   -2.485000
   549  Cl    s    -1.939967   -7.544942   -1.261933    0.000000   -2.485000
   550  Cl    s    -5.080357   -2.101031   18.094098    0.000000   -2.485000
   551  Cl    s   -10.647506    3.915507    7.706005    0.000000   -2.485000
   552  Cl    s    -1.213535    9.362091    7.705952    0.000000   -2.485000
   553  Cl    s     0.720272   -5.449546   18.093850    0.000000   -2.485000
   554  Cl    s     1.934146    6.983088   14.164084    0.000000   -2.485000
   555  Cl    s     1.212316    2.099589   18.094450    0.000000   -2.485000
   556  Cl    s    -4.355159    6.986856   14.159081    0.000000   -2.485000
   557  Cl    s     4.361091  -10.619064   11.639232    0.000000   -2.485000
   558  Cl    s   -10.148881    0.000029    1.268230    0.000000   -2.485000
   559  Cl    s    -7.008342    5.446601    1.264949    0.000000   -2.485000
   560  Cl    s   -11.373109    1.530477   11.637645    0.000000   -2.485000
   561  Cl    s   -11.378006   -5.733268    5.188614    0.000000   -2.485000
   562  Cl    s   -11.862248   -1.816833   11.642671    0.000000   -2.485000
   563  Cl    s     7.507005    5.169622    5.188594    0.000000   -2.485000
   564  Cl    s     4.355475  -11.178140    5.205107    0.000000   -2.485000
   565  Cl    s    -1.934187    3.347611   18.093713    0.000000   -2.485000
   566  Cl    s     1.216027  -12.473313    5.194515    0.000000   -2.485000
   567  Cl    s     7.047308   -9.106214    5.194664    0.000000   -2.485000
   568  Cl    s     1.935554  -10.616418   14.167765    0.000000   -2.485000
   569  Cl    s    -4.356678  -10.620680   14.166895    0.000000   -2.485000
   570  Cl    s   -11.374912   -5.163117   11.638582    0.000000   -2.485000
   571  Cl    s     8.230870    0.279235   14.164564    0.000000   -2.485000
   572  Cl    s     3.865801   -0.000367   18.093437    0.000000   -2.485000
   573  Cl    s     0.725007    9.087138   11.639334    0.000000   -2.485000
   574  Cl    s     5.082838    5.725581   14.161343    0.000000   -2.485000
   575  Cl    s     8.230071   -3.911714   14.163329    0.000000   -2.485000
   576  Cl    s   -10.644436    0.277306   14.162063    0.000000   -2.485000
   577  Cl    s    -5.080100    2.100059   18.094463    0.000000   -2.485000
   578  Cl    s   -11.863015    1.819239    5.191747    0.000000   -2.485000
   579  Cl    s     1.209484    9.366335    5.191428    0.000000   -2.485000
   580  Cl    s    -7.498542    5.724680   14.159932    0.000000   -2.485000
   581  Cl    s     5.077018   -8.793222    1.267650    0.000000   -2.485000
   582  Cl    s   -10.647437   -3.910063   14.163748    0.000000   -2.485000
   583  Cl    s     8.226037   -3.345881    1.265988    0.000000   -2.485000
   584  Cl    s    -7.506558   -8.799945    1.263965    0.000000   -2.485000
   585  Cl    s    -8.233184   -3.353736   -1.268801    0.000000   -2.485000
   586  Cl    s   -10.645330   -3.349650    1.262976    0.000000   -2.485000
   587  Cl    s    -3.870933  -10.901344    1.262065    0.000000   -2.485000
   588  Cl    s     0.729687    5.455620   -1.267245    0.000000   -2.485000
   589  Cl    s     4.359003   -3.350047   18.094643    0.000000   -2.485000
   590  Cl    s     1.933159    7.547161    1.262073    0.000000   -2.485000
   591  Cl    s    -8.226244    6.978084   11.634766    0.000000   -2.485000
   592  Cl    s    -5.571107   -5.449633   18.094999    0.000000   -2.485000
   593  Cl    s    -4.356712    7.546380    1.261576    0.000000   -2.485000
   594  Cl    s     5.082925   -9.359212   14.162768    0.000000   -2.485000
   595  Cl    s     4.358903    3.357805   -1.266160    0.000000   -2.485000
   596  Cl    s     5.568067    5.443990    1.263078    0.000000   -2.485000
   597  Cl    s    -7.501513   -9.359402   14.164583    0.000000   -2.485000
   598  Cl    s    -5.088632  -12.425431    5.189059    0.000000   -2.485000
   599  Cl    s    10.158104   -3.622349    5.189181    0.000000   -2.485000
   600  Cl    s    -1.935123   -7.549055   18.095474    0.000000   -2.485000
   601  Cl    s     0.724946  -12.719125   11.641429    0.000000   -2.485000
   602  Cl    s     1.211110   -8.807150   -1.264476    0.000000   -2.485000
   603  Cl    s     2.421846  -10.896151    1.263888    0.000000   -2.485000
   604  Cl    s     7.504391    5.731672   11.643142    0.000000   -2.485000
   605  Cl    s    -8.721432    7.272449    5.186392    0.000000   -2.485000
   606  Cl    s    -5.083799    9.372040    5.186350    0.000000   -2.485000
   607  Cl    s    -8.708205    0.001272   -1.261814    0.000000   -2.485000
   608  Cl    s     8.715432   -0.000537    1.262127    0.000000   -2.485000
   609  Cl    s    -8.224602  -10.612574   11.638309    0.000000   -2.485000
   610  Cl    s   -10.160856    3.632229   14.167653    0.000000   -2.485000
   611  Cl    s    -5.568477    9.082370   11.637963    0.000000   -2.485000
   612  Cl    s    -8.231169  -11.173060    5.200658    0.000000   -2.485000
   613  Cl    s    10.644511   -0.275350    5.200738    0.000000   -2.485000
   614  Cl    s     7.503881   -9.364892   11.643628    0.000000   -2.485000
   615  Cl    s     4.354068   -7.542692   -1.259834    0.000000   -2.485000
   616  Cl    s    -5.081854   -8.803614   -1.266477    0.000000   -2.485000
   617  Cl    s   -10.163625   -7.266877   14.168446    0.000000   -2.485000
   618  Cl    s    -1.216855    8.794812    1.268485    0.000000   -2.485000
   619  Cl    s    -5.562340    5.451154   -1.261756    0.000000   -2.485000
   620  Cl    s    -0.728120    9.081146   14.162489    0.000000   -2.485000
   621  Cl    s     5.083919  -12.439027    7.727849    0.000000   -2.485000
   622  Cl    s    -5.569334  -12.713393   11.641371    0.000000   -2.485000
   623  Cl    s     8.225437    3.344517    1.267448    0.000000   -2.485000
   624  Cl    s    -8.224110   -3.347784   18.090945    0.000000   -2.485000
   625  Cl    s    -7.509885  -12.444175    7.721488    0.000000   -2.485000
   626  Cl    s    11.385730   -1.535076    7.721486    0.000000   -2.485000
   627  Cl    s    10.648192    0.281863   11.641776    0.000000   -2.485000
   628  Cl    s   -11.390352    5.173499    5.183783    0.000000   -2.485000
   629  Cl    s     0.719392    5.448280   18.091824    0.000000   -2.485000
   630  Cl    s    -1.932484   10.634016    5.183764    0.000000   -2.485000
   631  Cl    s    -8.229160    3.352669   -1.266410    0.000000   -2.485000
   632  Cl    s   -10.647500    3.348224    1.264648    0.000000   -2.485000
   633  Cl    s    10.647811   -3.914583   11.642213    0.000000   -2.485000
   634  Cl    s     7.501533   -2.092876   -1.260059    0.000000   -2.485000
   635  Cl    s     4.357444    3.347549   18.092288    0.000000   -2.485000
   636  Cl    s   -13.305531    1.823800    7.724324    0.000000   -2.485000
   637  Cl    s     1.926352   10.618112    7.723929    0.000000   -2.485000
   638  Cl    s   -13.796596   -1.531898    7.715180    0.000000   -2.485000
   639  Cl    s     5.078422    9.365469    7.714856    0.000000   -2.485000
   640  Cl    s   -10.169630    7.275338    7.717337    0.000000   -2.485000
   641  Cl    s    -4.362981   10.628110    7.717209    0.000000   -2.485000
   642  Cl    s    -7.500988    9.358950    7.709635    0.000000   -2.485000
   643  Cl    s     1.212784   -8.796985   18.091361    0.000000   -2.485000
   644  Cl    s    -1.209909   -2.095039   20.620439    0.000000   -2.485000
   645  Cl    s    -0.726653  -12.716494   14.165593    0.000000   -2.485000
   646  Cl    s    -8.716188   -0.000135   18.092072    0.000000   -2.485000
[...]
    625 z          7.716029      7.721488     0.005459    Cartesian    0.07
    626 x         11.376153     11.385730     0.009577    Cartesian    0.08
    626 y         -1.535386     -1.535076     0.000310    Cartesian   -0.02
    626 z          7.716029      7.721486     0.005457    Cartesian    0.07
    627 x         10.652030     10.648192    -0.003838    Cartesian   -0.04
    627 y          0.281169      0.281863     0.000694    Cartesian    0.25
    627 z         11.642631     11.641776    -0.000855    Cartesian   -0.01
    628 x        -11.376153    -11.390352    -0.014199    Cartesian    0.12
    628 y          5.169020      5.173499     0.004479    Cartesian    0.09
    628 z          5.189744      5.183783    -0.005961    Cartesian   -0.11
    629 x          0.724123      0.719392    -0.004731    Cartesian   -0.65
    629 y          5.450711      5.448280    -0.002431    Cartesian   -0.04
    629 z         18.095518     18.091824    -0.003694    Cartesian   -0.02
    630 x         -1.935697     -1.932484     0.003213    Cartesian   -0.17
    630 y         10.619469     10.634016     0.014547    Cartesian    0.14
    630 z          5.189744      5.183764    -0.005981    Cartesian   -0.12
    631 x         -8.229334     -8.229160     0.000174    Cartesian   -0.00
    631 y          3.352203      3.352669     0.000466    Cartesian    0.01
    631 z         -1.263142     -1.266410    -0.003268    Cartesian    0.26
    632 x        -10.652030    -10.647500     0.004530    Cartesian   -0.04
    632 y          3.352464      3.348224    -0.004240    Cartesian   -0.13
    632 z          1.263142      1.264648     0.001506    Cartesian    0.12
    633 x         10.651577     10.647811    -0.003766    Cartesian   -0.04
    633 y         -3.915063     -3.914583     0.000480    Cartesian   -0.01
    633 z         11.642631     11.642213    -0.000418    Cartesian   -0.00
    634 x          7.504758      7.501533    -0.003226    Cartesian   -0.04
    634 y         -2.098247     -2.092876     0.005371    Cartesian   -0.26
    634 z         -1.263142     -1.260059     0.003083    Cartesian   -0.24
    635 x          4.357940      4.357444    -0.000496    Cartesian   -0.01
    635 y          3.352203      3.347549    -0.004654    Cartesian   -0.14
    635 z         18.095518     18.092288    -0.003229    Cartesian   -0.02
    636 x        -13.311397    -13.305531     0.005866    Cartesian   -0.04
    636 y          1.816555      1.823800     0.007245    Cartesian    0.40
    636 z          7.716029      7.724324     0.008295    Cartesian    0.11
    637 x          1.935244      1.926352    -0.008893    Cartesian   -0.46
    637 y         10.619731     10.618112    -0.001619    Cartesian   -0.02
    637 z          7.716029      7.723929     0.007900    Cartesian    0.10
    638 x        -13.798396    -13.796596     0.001799    Cartesian   -0.01
    638 y         -1.535386     -1.531898     0.003489    Cartesian   -0.23
    638 z          7.716029      7.715180    -0.000848    Cartesian   -0.01
    639 x          5.082516      5.078422    -0.004093    Cartesian   -0.08
    639 y          9.365513      9.365469    -0.000044    Cartesian   -0.00
    639 z          7.716029      7.714856    -0.001173    Cartesian   -0.02
    640 x        -10.164579    -10.169630    -0.005051    Cartesian    0.05
    640 y          7.267005      7.275338     0.008333    Cartesian    0.11
    640 z          7.716029      7.717337     0.001308    Cartesian    0.02
    641 x         -4.358393     -4.362981    -0.004588    Cartesian    0.11
    641 y         10.619731     10.628110     0.008380    Cartesian    0.08
    641 z          7.716029      7.717209     0.001180    Cartesian    0.02
    642 x         -7.504758     -7.500988     0.003771    Cartesian   -0.05
    642 y          9.365513      9.358950    -0.006562    Cartesian   -0.07
    642 z          7.716029      7.709635    -0.006394    Cartesian   -0.08
    643 x          1.211574      1.212784     0.001210    Cartesian    0.10
    643 y         -8.802914     -8.796985     0.005929    Cartesian   -0.07
    643 z         18.095518     18.091361    -0.004157    Cartesian   -0.02
    644 x         -1.211574     -1.209909     0.001665    Cartesian   -0.14
    644 y         -2.097985     -2.095039     0.002946    Cartesian   -0.14
    644 z         20.621802     20.620439    -0.001363    Cartesian   -0.01
    645 x         -0.724123     -0.726653    -0.002530    Cartesian    0.35
    645 y        -12.717977    -12.716494     0.001484    Cartesian   -0.01
    645 z         14.168915     14.165593    -0.003323    Cartesian   -0.02
    646 x         -8.716333     -8.716188     0.000145    Cartesian   -0.00
    646 y          0.000261     -0.000135    -0.000397    Cartesian -151.63
    646 z         18.095518     18.092072    -0.003446    Cartesian   -0.02
    647 x          8.716333      8.710035    -0.006298    Cartesian   -0.07
    647 y          3.633372      3.633371    -0.000001    Cartesian   -0.00
    647 z         14.168915     14.164227    -0.004688    Cartesian   -0.03
    648 x          7.017760      7.017714    -0.000046    Cartesian   -0.00
    648 y         -5.450188     -5.450337    -0.000149    Cartesian    0.00
    648 z         -1.263142     -1.264879    -0.001737    Cartesian    0.14
    649 x          8.228881      8.224235    -0.004647    Cartesian   -0.06
    649 y         -7.548435     -7.546530     0.001904    Cartesian   -0.03
    649 z          1.263142      1.264574     0.001431    Cartesian    0.11
    650 x         -1.935244     -1.937746    -0.002501    Cartesian    0.13
    650 y          7.548435      7.542567    -0.005868    Cartesian   -0.08
    650 z         -1.263142     -1.258592     0.004550    Cartesian   -0.36
    651 x         -8.229334     -8.231828    -0.002494    Cartesian    0.03
    651 y         -7.548696     -7.543808     0.004888    Cartesian   -0.06
    651 z         -1.263142     -1.260426     0.002716    Cartesian   -0.22
    652 x          8.716333      8.710584    -0.005749    Cartesian   -0.07
    652 y         -7.267528     -7.267303     0.000224    Cartesian   -0.00
    652 z         14.168915     14.164493    -0.004423    Cartesian   -0.03
    653 x        -10.652030    -10.646948     0.005082    Cartesian   -0.05
    653 y         -7.548435     -7.544710     0.003725    Cartesian   -0.05
    653 z          1.263142      1.261701    -0.001442    Cartesian   -0.11
    654 x          4.357940      4.356847    -0.001093    Cartesian   -0.03
    654 y         -7.548696     -7.548013     0.000683    Cartesian   -0.01
    654 z         18.095518     18.092885    -0.002632    Cartesian   -0.01
    655 x         10.164579     10.158481    -0.006098    Cartesian   -0.06
    655 y          3.633895      3.635348     0.001453    Cartesian    0.04
    655 z         11.642631     11.638558    -0.004073    Cartesian   -0.03
    656 x         -5.082063     -5.078833     0.003230    Cartesian   -0.06
    656 y         -8.802914     -8.797081     0.005833    Cartesian   -0.07
    656 z         18.095518     18.092284    -0.003234    Cartesian   -0.02
    657 x         -0.724123     -0.719544     0.004579    Cartesian   -0.63
    657 y         -1.817078     -1.816552     0.000526    Cartesian   -0.03
    657 z         -5.189744     -5.183427     0.006317    Cartesian   -0.12
    658 x         -2.422696     -2.418045     0.004651    Cartesian   -0.19
    658 y        -10.900638    -10.901141    -0.000503    Cartesian    0.00
    658 z         -1.263142     -1.261550     0.001592    Cartesian   -0.13
    659 x         -3.870942     -3.873150    -0.002209    Cartesian    0.06
    659 y         -0.000261     -0.001197    -0.000936    Cartesian  357.76
    659 z         20.621802     20.621082    -0.000720    Cartesian   -0.00
    660 x        -11.375700    -11.371791     0.003909    Cartesian   -0.03
    660 y          5.731618      5.730314    -0.001304    Cartesian   -0.02
    660 z         11.642631     11.640645    -0.001986    Cartesian   -0.02
    661 x          7.505211      7.502390    -0.002821    Cartesian   -0.04
    661 y          2.097985      2.092090    -0.005896    Cartesian   -0.28
    661 z         -1.263142     -1.259564     0.003578    Cartesian   -0.28
    662 x         -1.211574     -1.211631    -0.000057    Cartesian    0.00
    662 y        -12.998884    -12.992886     0.005999    Cartesian   -0.05
    662 z          1.263142      1.261760    -0.001382    Cartesian   -0.11
    663 x         -5.569514     -5.570978    -0.001463    Cartesian    0.03
    663 y          5.450711      5.448693    -0.002018    Cartesian   -0.04
    663 z         18.095518     18.093067    -0.002450    Cartesian   -0.01
    664 x         -3.870942     -3.885217    -0.014276    Cartesian    0.37
    664 y        -14.534794    -14.536737    -0.001943    Cartesian    0.01
    664 z          7.716029      7.715481    -0.000548    Cartesian   -0.01
    665 x         11.375700     11.384556     0.008856    Cartesian    0.08
    665 y         -5.731618     -5.720365     0.011253    Cartesian   -0.20
    665 z          7.716029      7.715684    -0.000345    Cartesian   -0.00
    666 x         10.164579     10.159738    -0.004840    Cartesian   -0.05
    666 y         -7.267005     -7.268343    -0.001338    Cartesian    0.02
    666 z         11.642631     11.638996    -0.003635    Cartesian   -0.03
    667 x          1.935697      1.936047     0.000350    Cartesian    0.02
    667 y         -3.352203     -3.354186    -0.001983    Cartesian    0.06
    667 z         20.621802     20.621419    -0.000383    Cartesian   -0.00
    668 x         -4.357940     -4.355695     0.002245    Cartesian   -0.05
    668 y         -3.352203     -3.354844    -0.002641    Cartesian    0.08
    668 z         20.621802     20.620725    -0.001077    Cartesian   -0.01
    669 x         -2.422696     -2.426232    -0.003537    Cartesian    0.15
    669 y        -14.534271    -14.529456     0.004815    Cartesian   -0.03
    669 z          5.189744      5.192007     0.002262    Cartesian    0.04
    670 x         10.652030     10.649491    -0.002539    Cartesian   -0.02
    670 y         -6.986098     -6.980594     0.005503    Cartesian   -0.08
    670 z          5.189744      5.192165     0.002421    Cartesian    0.05
    671 x         -1.211121     -1.209831     0.001291    Cartesian   -0.11
    671 y          2.098247      2.094241    -0.004006    Cartesian   -0.19
    671 z         20.621802     20.620171    -0.001631    Cartesian   -0.01
    672 x        -13.798849    -13.789882     0.008967    Cartesian   -0.06
    672 y         -5.731618     -5.724506     0.007112    Cartesian   -0.12
    672 z          7.716029      7.710526    -0.005502    Cartesian   -0.07
    673 x          8.716333      8.705757    -0.010575    Cartesian   -0.12
    673 y          7.267005      7.262850    -0.004155    Cartesian   -0.06
    673 z          7.716029      7.710513    -0.005516    Cartesian   -0.07
    674 x         -0.724123     -0.727523    -0.003400    Cartesian    0.47
    674 y         -5.450711     -5.450306     0.000405    Cartesian   -0.01
    674 z         20.621802     20.620643    -0.001159    Cartesian   -0.01
    675 x        -11.863151    -11.855452     0.007699    Cartesian   -0.06
    675 y         -9.083821     -9.080492     0.003330    Cartesian   -0.04
    675 z          5.189744      5.193106     0.003362    Cartesian    0.06
    676 x          2.422696      2.418411    -0.004285    Cartesian   -0.18
    676 y         -0.000261     -0.001402    -0.001141    Cartesian  436.15
    676 z         20.621802     20.619929    -0.001873    Cartesian   -0.01
    677 x         10.652030     10.645348    -0.006682    Cartesian   -0.06
    677 y          3.914802      3.909847    -0.004955    Cartesian   -0.13
    677 z          5.189744      5.193071     0.003327    Cartesian    0.06
    678 x        -11.376153    -11.372350     0.003803    Cartesian   -0.03
    678 y         -9.365513     -9.363534     0.001979    Cartesian   -0.02
    678 z         11.642631     11.641350    -0.001281    Cartesian   -0.01
    679 x         -1.935244     -1.935409    -0.000165    Cartesian    0.01
    679 y         11.182068     11.176287    -0.005781    Cartesian   -0.05
    679 z         11.642631     11.643815     0.001183    Cartesian    0.01
    680 x         -8.229334     -8.224425     0.004910    Cartesian   -0.06
    680 y          3.352203      3.346123    -0.006080    Cartesian   -0.18
    680 z         18.095518     18.090274    -0.005244    Cartesian   -0.03
    681 x          7.504758      7.503178    -0.001580    Cartesian   -0.02
    681 y         -2.098247     -2.099714    -0.001468    Cartesian    0.07
    681 z         18.095518     18.093670    -0.001848    Cartesian   -0.01
    682 x          2.422696      2.425632     0.002937    Cartesian    0.12
    682 y        -14.534794    -14.535796    -0.001002    Cartesian    0.01
    682 z          7.716029      7.722715     0.006686    Cartesian    0.09
    683 x          8.228881      8.228181    -0.000700    Cartesian   -0.01
    683 y        -11.182068    -11.185332    -0.003264    Cartesian    0.03
    683 z          7.716029      7.722817     0.006788    Cartesian    0.09
    684 x         -1.211574     -1.215805    -0.004231    Cartesian    0.35
    684 y          1.535648      1.528771    -0.006877    Cartesian   -0.45
    684 z         -5.189744     -5.181406     0.008339    Cartesian   -0.16
    685 x        -10.652030    -10.646701     0.005329    Cartesian   -0.05
    685 y        -11.182068    -11.175009     0.007059    Cartesian   -0.06
    685 z          7.716029      7.711414    -0.004614    Cartesian   -0.06
    686 x         11.863151     11.854397    -0.008754    Cartesian   -0.07
    686 y          1.816555      1.815475    -0.001080    Cartesian   -0.06
    686 z          7.716029      7.711435    -0.004593    Cartesian   -0.06
    687 x         -1.211121     -1.215579    -0.004457    Cartesian    0.37
    687 y         -5.169020     -5.160568     0.008451    Cartesian   -0.16
    687 z         -5.189744     -5.181146     0.008598    Cartesian   -0.17
    688 x          1.935697      1.931633    -0.004064    Cartesian   -0.21
    688 y          0.281430      0.286514     0.005084    Cartesian    1.81
    688 z         -5.189744     -5.182151     0.007594    Cartesian   -0.15
    689 x         -4.357940     -4.359113    -0.001173    Cartesian    0.03
    689 y          0.281430      0.283984     0.002554    Cartesian    0.91
    689 z         -5.189744     -5.183138     0.006606    Cartesian   -0.13
    690 x          7.017760      7.010170    -0.007590    Cartesian   -0.11
    690 y         -5.450188     -5.448882     0.001306    Cartesian   -0.02
    690 z         18.095518     18.090460    -0.005057    Cartesian   -0.03
    691 x          1.935244      1.931650    -0.003594    Cartesian   -0.19
    691 y         -3.914802     -3.918084    -0.003282    Cartesian    0.08
    691 z         -5.189744     -5.183079     0.006665    Cartesian   -0.13
    692 x         -4.358393     -4.359341    -0.000948    Cartesian    0.02
    692 y         -3.914802     -3.915917    -0.001115    Cartesian    0.03
    692 z         -5.189744     -5.183932     0.005813    Cartesian   -0.11
    693 x        -13.311397    -13.306724     0.004673    Cartesian   -0.04
    693 y         -1.817078     -1.815944     0.001134    Cartesian   -0.06
    693 z         14.168915     14.172044     0.003129    Cartesian    0.02
    694 x        -14.522971    -14.536892    -0.013921    Cartesian    0.10
    694 y         -0.281430     -0.268712     0.012719    Cartesian   -4.52
    694 z          5.189744      5.191098     0.001353    Cartesian    0.03
    695 x          4.357940      4.354093    -0.003846    Cartesian   -0.09
    695 y         10.619469     10.637884     0.018415    Cartesian    0.17
    695 z          5.189744      5.190754     0.001010    Cartesian    0.02
    696 x         -7.017760     -7.017768    -0.000008    Cartesian    0.00
    696 y          9.083821      9.079572    -0.004249    Cartesian   -0.05
    696 z         14.168915     14.164129    -0.004787    Cartesian   -0.03
    697 x        -11.376153    -11.376713    -0.000560    Cartesian    0.00
    697 y         -2.098247     -2.093950     0.004297    Cartesian   -0.20
    697 z         -1.263142     -1.260879     0.002263    Cartesian   -0.18
    698 x         -1.935697     -1.936311    -0.000613    Cartesian    0.03
    698 y        -14.815962    -14.809677     0.006285    Cartesian   -0.04
    698 z         11.642631     11.644427     0.001796    Cartesian    0.02
    699 x         -1.935244     -1.934902     0.000342    Cartesian   -0.02
    699 y          7.548435      7.546808    -0.001627    Cartesian   -0.02
    699 z         18.095518     18.092410    -0.003108    Cartesian   -0.02
    700 x         -8.229334     -8.226155     0.003180    Cartesian   -0.04
    700 y         -7.548696     -7.549407    -0.000710    Cartesian    0.01
    700 z         18.095518     18.092657    -0.002861    Cartesian   -0.02
    701 x          5.082063      5.073784    -0.008279    Cartesian   -0.16
    701 y          8.802914      8.789609    -0.013305    Cartesian   -0.15
    701 z          1.263142      1.271287     0.008145    Cartesian    0.64
    702 x         -2.422696     -2.425537    -0.002841    Cartesian    0.12
    702 y        -10.900638    -10.898070     0.002568    Cartesian   -0.02
    702 z         18.095518     18.092440    -0.003077    Cartesian   -0.02
    703 x         -7.505211     -7.506175    -0.000964    Cartesian    0.01
    703 y          8.802914      8.793627    -0.009287    Cartesian   -0.11
    703 z          1.263142      1.268986     0.005844    Cartesian    0.46
    704 x          7.505211      7.503313    -0.001898    Cartesian   -0.03
    704 y          2.097985      2.097639    -0.000346    Cartesian   -0.02
    704 z         18.095518     18.092579    -0.002939    Cartesian   -0.02
    705 x        -14.522519    -14.516447     0.006072    Cartesian   -0.04
    705 y          0.281169      0.283694     0.002525    Cartesian    0.90
    705 z         11.642631     11.639032    -0.003599    Cartesian   -0.03
--------------------------------------------------------------------------------


  Time to end of optimisation  =      180.9359 seconds


  Peak dynamic memory used =      75.74 MB 


  Timing analysis for GULP :

--------------------------------------------------------------------------------
  Task / Subroutine                                          Time (Seconds)
--------------------------------------------------------------------------------
  Calculation of reciprocal space energy and derivatives          0.0048
  Calculation of reciprocal space energy using symmetry           0.0415
  Calculation of real space energy and derivatives                0.0224
  Calculation of real space energy using symmetry                 0.7635
  Calculation for region 1 energy and derivatives (2-b)          55.2847
  Calculation for region 2a energy                               96.5796
  Calculation for region 2b energy                                0.0166
  Calculation and manipulation of Hessian matrix                  0.0248
  Calculation of matrix inversion                                27.5396
  Symmetry generation of equivalent positions                     0.0017
  Global summation overhead                                       0.0002
--------------------------------------------------------------------------------
  Total CPU time                                                180.9360
--------------------------------------------------------------------------------


  Dump file written as ScCl3.grs



  **** GULP has completed with   2 warnings - beware! ****

  Job Finished at 11:35.56 18th August     2021                               

