********************************************************************************
*                       GENERAL UTILITY LATTICE PROGRAM                        *
*                                 Julian Gale                                  *
*                       Curtin Institute for Computation                       *
*                    School of Molecular and Life Sciences                     *
*                    Curtin University, Western Australia                      *
********************************************************************************
* Version = 5.2.0 * Last modified =  10th September 2020                       *
********************************************************************************
*  optimise     - perform optimisation run                                     *
*  conp         - constant pressure calculation                                *
*  property     - calculate properties for final geometry                      *
*  defect       - perform defect calculation after bulk run                    *
*  compare      - compare initial and final structures                         *
********************************************************************************

  Job Started  at 11:32.54 18th August     2021                               

  Number of CPUs =     1


  Total number of configurations input =      1

********************************************************************************
*  Input for Configuration =   1                                               *
********************************************************************************

  Formula = Sc2Cl6                                                      

  Number of irreducible atoms/shells =       3


  Total number atoms/shells =      14

  Dimensionality = 3               :  Bulk   


  Symmetry :

  Crystal family                   :  Hexagonal   
  Crystal class  (Groth - 1921)    :  Trigonal Rhombohedral                

  Space group (centrosymmetric)    :  R -3            

  Patterson group                  :  R -3     

  Cartesian lattice vectors (Angstroms) :

        3.246588    1.874418    6.441540
       -3.246588    1.874418    6.441540
        0.000000   -3.748837    6.441540

  Cell parameters (Angstroms/Degrees):

  a =       7.4530    alpha =  51.6480
  b =       7.4530    beta  =  51.6480
  c =       7.4530    gamma =  51.6480

  Initial cell volume =         235.198534 Angs**3

  Temperature of configuration =   0.00     K 

  Pressure of configuration =         0.000 GPa 

  Fractional coordinates of asymmetric unit :

--------------------------------------------------------------------------------
   No.  Atomic       x           y          z         Charge      Occupancy
        Label      (Frac)      (Frac)     (Frac)        (e)         (Frac)  
--------------------------------------------------------------------------------
      1 Sc    c    0.333900    0.333900    0.333900 *   3.00000    1.000000    
      2 Cl    c    0.073700 *  0.443900 *  0.705300 *   1.48500    1.000000    
      3 Cl    s    0.073700 *  0.443900 *  0.705300 *  -2.48500    1.000000    
--------------------------------------------------------------------------------


  Constraints : 

--------------------------------------------------------------------------------
  Constraint no.      Unconstrained     Constrained    Coefficient    Offset
                         Variable         Variable
--------------------------------------------------------------------------------
           1              Strain 1        Strain 2       1.00000      0.0000
--------------------------------------------------------------------------------


********************************************************************************
*  General input information                                                   *
********************************************************************************

  Species output for all configurations : 

--------------------------------------------------------------------------------
  Species    Type    Atomic    Atomic    Charge       Radii (Angs)     Library
                     Number     Mass       (e)     Cova   Ionic  VDW   Symbol
--------------------------------------------------------------------------------
    Sc       Core       21      44.96   3.000000   1.440  0.000  2.150          
    Cl       Core       17      35.45   1.485000   0.990  0.000  1.650          
    Cl       Shell      17       0.00  -2.485000   0.990  0.000  1.650          
--------------------------------------------------------------------------------


  Lattice summation method               =    Ewald          (3-D)
                                         =    Parry          (2-D)
                                         =    Saunders et al (1-D)
  Accuracy factor for lattice sums       =   12.000


  Analytic derivatives to be used

  Time limit = Infinity

  Maximum range for interatomic potentials =    100000.000000 Angstroms

  General interatomic potentials :

--------------------------------------------------------------------------------
Atom  Types   Potential      Parameter       Value         Units   Cutoffs(Ang)
  1     2                                                            Min /  Max 
--------------------------------------------------------------------------------
Cl   c Cl   s Spring (c-s)  Spring k 2       29.380000    eV*Ang^-2 0.000  0.800
                            Spring k 4       0.0000000    eV*Ang^-4 
--------------------------------------------------------------------------------
Sc   c Cl   s Buckingham    Buckingham A     12131.350    eV        0.000 12.000
                            Buckingham rho  0.25070000    Ang       
                            Buckingham C     0.0000000    eV*Ang^6  
--------------------------------------------------------------------------------
Cl   s Cl   s Buckingham    Buckingham A     1227.2000    eV        0.000 12.000
                            Buckingham rho  0.32100000    Ang       
                            Buckingham C     14.530000    eV*Ang^6  
--------------------------------------------------------------------------------

********************************************************************************
*  Output for configuration   1                                                *
********************************************************************************


  Components of energy : 

--------------------------------------------------------------------------------
  Interatomic potentials     =           6.77737779 eV    
  Monopole - monopole (real) =         -30.86300284 eV    
  Monopole - monopole (recip)=         -65.52201623 eV    
  Monopole - monopole (total)=         -96.38501907 eV    
--------------------------------------------------------------------------------
  Total lattice energy : 
    Primitive unit cell      =         -89.60764128 eV    
    Non-primitive unit cell  =        -268.82292384 eV    
--------------------------------------------------------------------------------
  Total lattice energy (in kJmol-1): 
    Primitive unit cell      =           -8645.7676 kJ/(mole unit cells)
    Non-primitive unit cell  =          -25937.3028 kJ/(mole unit cells)
--------------------------------------------------------------------------------


  Number of variables =        9

  Maximum number of calculations  =          1000
  Maximum Hessian update interval =            10
  Maximum step size               =   1.000000000
  Maximum parameter tolerance     =   0.000010000
  Maximum function  tolerance     =   0.000010000
  Maximum gradient  tolerance     =   0.001000000
  Maximum gradient  component     =   0.010000000

  Symmetry constrained optimisation

  Symmetry used for second derivatives

  Cell parameters to be optimised using strains

  Newton-Raphson optimiser to be used

  BFGS hessian update to be used

  Lower half triangular hessian to be used

  Start of bulk optimisation :

  Cycle:      0 Energy:       -89.607641  Gnorm:    194.660938  CPU:    0.006
  ** Hessian calculated **
  Cycle:      1 Energy:       -99.336245  Gnorm:     16.922396  CPU:    0.012
  Cycle:      2 Energy:       -99.561570  Gnorm:      7.561347  CPU:    0.019
  Cycle:      3 Energy:       -99.729576  Gnorm:      4.412393  CPU:    0.025
  Cycle:      4 Energy:       -99.829400  Gnorm:      2.218678  CPU:    0.030
  Cycle:      5 Energy:       -99.844572  Gnorm:      0.723795  CPU:    0.034
  Cycle:      6 Energy:       -99.846381  Gnorm:      0.448826  CPU:    0.039
  Cycle:      7 Energy:       -99.846853  Gnorm:      0.344817  CPU:    0.043
  Cycle:      8 Energy:       -99.849123  Gnorm:      0.319075  CPU:    0.051
  Cycle:      9 Energy:       -99.851112  Gnorm:      0.253552  CPU:    0.057
  Cycle:     10 Energy:       -99.852597  Gnorm:      0.161985  CPU:    0.063
  ** Hessian calculated **
  Cycle:     11 Energy:       -99.854095  Gnorm:      0.114649  CPU:    0.072
  Cycle:     12 Energy:       -99.855517  Gnorm:      0.062367  CPU:    0.078
  Cycle:     13 Energy:       -99.856271  Gnorm:      0.091299  CPU:    0.084
  Cycle:     14 Energy:       -99.856398  Gnorm:      0.057833  CPU:    0.091
  Cycle:     15 Energy:       -99.709969  Gnorm:      9.382415  CPU:    0.112
  ** Hessian calculated **
  Cycle:     16 Energy:       -99.834592  Gnorm:      3.493936  CPU:    0.122
  Cycle:     17 Energy:       -99.855984  Gnorm:      0.183406  CPU:    0.127
  Cycle:     18 Energy:       -99.856377  Gnorm:      0.024886  CPU:    0.133
  ** Hessian calculated **
  Cycle:     19 Energy:       -99.856378  Gnorm:      0.010051  CPU:    0.140
  Cycle:     20 Energy:       -99.856379  Gnorm:      0.013393  CPU:    0.146
  Cycle:     21 Energy:       -99.856379  Gnorm:      0.009613  CPU:    0.151
  Cycle:     22 Energy:       -99.856380  Gnorm:      0.011718  CPU:    0.156
  Cycle:     23 Energy:       -99.856381  Gnorm:      0.013744  CPU:    0.160
  Cycle:     24 Energy:       -99.856381  Gnorm:      0.012669  CPU:    0.164
  Cycle:     25 Energy:       -99.856382  Gnorm:      0.013916  CPU:    0.169
  Cycle:     26 Energy:       -99.856383  Gnorm:      0.012516  CPU:    0.173
  Cycle:     27 Energy:       -99.856383  Gnorm:      0.006850  CPU:    0.177
  Cycle:     28 Energy:       -99.856383  Gnorm:      0.005130  CPU:    0.181
  ** Hessian calculated **
  Cycle:     29 Energy:       -99.856383  Gnorm:      0.005098  CPU:    0.188
  Cycle:     30 Energy:       -99.856383  Gnorm:      0.005050  CPU:    0.192
  Cycle:     31 Energy:       -99.856384  Gnorm:      0.004978  CPU:    0.196
  Cycle:     32 Energy:       -99.856384  Gnorm:      0.004870  CPU:    0.201
  Cycle:     33 Energy:       -99.856385  Gnorm:      0.004708  CPU:    0.205
  Cycle:     34 Energy:       -99.856385  Gnorm:      0.004465  CPU:    0.210
  Cycle:     35 Energy:       -99.856387  Gnorm:      0.004100  CPU:    0.215
  Cycle:     36 Energy:       -99.856389  Gnorm:      0.003183  CPU:    0.221
  Cycle:     37 Energy:       -99.856390  Gnorm:      0.002732  CPU:    0.228
  Cycle:     38 Energy:       -99.856390  Gnorm:      0.002622  CPU:    0.234
  ** Hessian calculated **
  Cycle:     39 Energy:       -99.856390  Gnorm:      0.002617  CPU:    0.246
  Cycle:     40 Energy:       -99.856390  Gnorm:      0.002611  CPU:    0.255
  Cycle:     41 Energy:       -99.856390  Gnorm:      0.002596  CPU:    0.263
  Cycle:     42 Energy:       -99.856390  Gnorm:      0.002573  CPU:    0.272
  Cycle:     43 Energy:       -99.856391  Gnorm:      0.002556  CPU:    0.282
  Cycle:     44 Energy:       -99.856391  Gnorm:      0.002551  CPU:    0.287
  Cycle:     45 Energy:       -99.856376  Gnorm:      0.010367  CPU:    0.303
  ** Hessian calculated **
  Cycle:     46 Energy:       -99.856376  Gnorm:      0.003162  CPU:    0.310
  Cycle:     47 Energy:       -99.856376  Gnorm:      0.004154  CPU:    0.315
  Cycle:     48 Energy:       -99.856376  Gnorm:      0.004258  CPU:    0.320
  Cycle:     49 Energy:       -99.856376  Gnorm:      0.003063  CPU:    0.325
  Cycle:     50 Energy:       -99.856376  Gnorm:      0.003213  CPU:    0.330
  Cycle:     51 Energy:       -99.856376  Gnorm:      0.002448  CPU:    0.335
  Cycle:     52 Energy:       -99.856376  Gnorm:      0.002432  CPU:    0.340
  Cycle:     53 Energy:       -99.856376  Gnorm:      0.002202  CPU:    0.345
  Cycle:     54 Energy:       -99.856376  Gnorm:      0.003030  CPU:    0.350
  Cycle:     55 Energy:       -99.856377  Gnorm:      0.003988  CPU:    0.355
  ** Hessian calculated **
  Cycle:     56 Energy:       -99.856377  Gnorm:      0.003870  CPU:    0.362
  Cycle:     57 Energy:       -99.856377  Gnorm:      0.003694  CPU:    0.367
  Cycle:     58 Energy:       -99.856377  Gnorm:      0.003429  CPU:    0.372
  Cycle:     59 Energy:       -99.856377  Gnorm:      0.003032  CPU:    0.377
  Cycle:     60 Energy:       -99.856378  Gnorm:      0.002436  CPU:    0.382
  Cycle:     61 Energy:       -99.856378  Gnorm:      0.001545  CPU:    0.387


  **** Optimisation achieved ****


  Final energy =     -99.85637867 eV
  Final Gnorm  =       0.00022970

  Components of energy : 

--------------------------------------------------------------------------------
  Interatomic potentials     =          20.55356182 eV    
  Monopole - monopole (real) =          80.99460097 eV    
  Monopole - monopole (recip)=        -201.40454146 eV    
  Monopole - monopole (total)=        -120.40994049 eV    
--------------------------------------------------------------------------------
  Total lattice energy : 
    Primitive unit cell      =         -99.85637867 eV    
    Non-primitive unit cell  =        -299.56913600 eV    
--------------------------------------------------------------------------------
  Total lattice energy (in kJmol-1): 
    Primitive unit cell      =           -9634.6141 kJ/(mole unit cells)
    Non-primitive unit cell  =          -28903.8423 kJ/(mole unit cells)
--------------------------------------------------------------------------------

  Final asymmetric unit coordinates :

--------------------------------------------------------------------------------
   No.  Atomic        x           y           z         Radius
        Label       (Frac)      (Frac)      (Frac)       (Angs) 
--------------------------------------------------------------------------------
     1  Sc    c     0.333302    0.333302    0.333302    0.000000
     2  Cl    c     0.077345    0.440528    0.713912    0.000000
     3  Cl    s     0.065297    0.450169    0.680282    0.000000
--------------------------------------------------------------------------------

  Final Cartesian lattice vectors (Angstroms) :

        3.146819    1.816817    6.452887
       -3.146819    1.816817    6.452887
        0.000000   -3.633633    6.452887


  Final cell parameters and derivatives :

--------------------------------------------------------------------------------
       a            7.405608 Angstrom     dE/de1(xx)    -0.000123 eV/strain
       b            7.405608 Angstrom     dE/de2(yy)     0.000000 eV/strain
       c            7.405608 Angstrom     dE/de3(zz)    -0.000049 eV/strain
       alpha       50.291669 Degrees      dE/de4(yz)     0.000000 eV/strain
       beta        50.291669 Degrees      dE/de5(xz)     0.000000 eV/strain
       gamma       50.291669 Degrees      dE/de6(xy)     0.000000 eV/strain
--------------------------------------------------------------------------------

  Primitive cell volume =           221.354351 Angs**3

  Density of cell =      2.270208 g/cm**3

  Non-primitive lattice parameters :

  a    =     6.293637  b   =     6.293637  c    =    19.358660
  alpha=    90.000000  beta=    90.000000  gamma=   120.000000

  Non-primitive cell volume =           664.063053 Angs**3


  Final internal derivatives :

--------------------------------------------------------------------------------
   No.  Atomic          a             b             c           Radius
        Label          (eV)          (eV)          (eV)        (eV/Angs)
--------------------------------------------------------------------------------
      1 Sc    c       0.000000      0.000000      0.000333      0.000000
      2 Cl    c      -0.000512      0.000026      0.001871      0.000000
      3 Cl    s      -0.000302      0.000461     -0.000278      0.000000
--------------------------------------------------------------------------------
  Maximum abs         0.000512      0.000461      0.001871      0.000000
--------------------------------------------------------------------------------

  Comparison of initial and final structures : 

--------------------------------------------------------------------------------
  Parameter   Initial value   Final value   Difference    Units      Percent
--------------------------------------------------------------------------------
    Volume       705.595603    664.063053   -41.532550    Angs**3     -5.89
    a              6.493176      6.293637    -0.199538    Angstroms   -3.07
    b              6.493176      6.293637    -0.199538    Angstroms   -3.07
    c             19.324619     19.358660     0.034041    Angstroms    0.18
    alpha         90.000000     90.000000     0.000000    Degrees      0.00
    beta          90.000000     90.000000     0.000000    Degrees      0.00
    gamma        120.000000    120.000000     0.000000    Degrees      0.00
      1 x          0.000000      0.000000     0.000000    Fractional   0.00
      1 y          0.000000      0.000000     0.000000    Fractional   0.00
      1 z          0.333900      0.333302     0.000598    Fractional   0.18
      2 x          0.666067      0.666750     0.000683    Fractional   0.10
      2 y          0.702333      0.696683     0.005650    Fractional   0.80
      2 z          0.407633      0.410595     0.002962    Fractional   0.73
      3 x          0.666067      0.666715     0.000648    Fractional   0.10
      3 y          0.702333      0.718301     0.015968    Fractional   2.27
      3 z          0.407633      0.398583     0.009051    Fractional   2.22
--------------------------------------------------------------------------------


  Born effective charge tensors : 

-------------------------------------------------------------------------------
  Atom             x           y             z
-------------------------------------------------------------------------------
    1 Sc    x       1.8547     -0.0008      0.0000
            y       0.0008      1.8547      0.0000
            z       0.0000      0.0000      1.3341
-------------------------------------------------------------------------------
    2 Cl    x      -0.6622     -0.0739     -0.0054
            y      -0.0744     -0.5743      0.0077
            z      -0.0118      0.0242     -0.4447
-------------------------------------------------------------------------------




  Elastic Constant Matrix: (Units=GPa)

-------------------------------------------------------------------------------
  Indices      1         2         3         4         5         6    
-------------------------------------------------------------------------------
       1     59.0042   36.7253    0.0676   -0.0391    0.0164    0.0000
       2     36.7253   59.0042    0.0676    0.0391   -0.0164   -0.0000
       3      0.0676    0.0676    1.3662   -0.0000   -0.0000    0.0000
       4     -0.0391    0.0391   -0.0000    0.1362   -0.0000   -0.0164
       5      0.0164   -0.0164   -0.0000   -0.0000    0.1362   -0.0391
       6      0.0000   -0.0000    0.0000   -0.0164   -0.0391   11.1394
-------------------------------------------------------------------------------


  Elastic Compliance Matrix: (Units=1/GPa)

-------------------------------------------------------------------------------
  Indices      1         2         3         4         5         6    
-------------------------------------------------------------------------------
       1    0.027693 -0.017246 -0.000517  0.012917 -0.005403 -0.000000
       2   -0.017246  0.027693 -0.000517 -0.012917  0.005403  0.000000
       3   -0.000517 -0.000517  0.731998 -0.000000  0.000000 -0.000000
       4    0.012917 -0.012917 -0.000000  7.352608  0.000000  0.010807
       5   -0.005403  0.005403  0.000000  0.000000  7.352608  0.025834
       6   -0.000000  0.000000 -0.000000  0.010807  0.025834  0.089878
-------------------------------------------------------------------------------

  Mechanical properties :

-------------------------------------------------------------------------------
  Convention :                    Reuss         Voigt         Hill
-------------------------------------------------------------------------------
  Bulk  Modulus (GPa)     =       1.33187      21.45510      11.39349
  Shear Modulus (GPa)     =       0.31507       7.78329       4.04918
-------------------------------------------------------------------------------
  Velocity S-wave (km/s)  =       0.37254       1.85161       1.33552
  Velocity P-wave (km/s)  =       0.87848       3.74459       2.71972
-------------------------------------------------------------------------------
  Compressibility (1/GPa) =    0.75082247
-------------------------------------------------------------------------------
  Stress axis :                     x             y             z
-------------------------------------------------------------------------------
  Youngs Moduli (GPa)     =      36.11042      36.11042       1.36612
-------------------------------------------------------------------------------
  Poissons Ratio (x)      =                     0.62276       0.00071
  Poissons Ratio (y)      =       0.62276                     0.00071
  Poissons Ratio (z)      =       0.01868       0.01868
-------------------------------------------------------------------------------


  Piezoelectric Strain Matrix: (Units=C/m**2)

-------------------------------------------------------------------------------
  Indices      1         2         3         4         5         6    
-------------------------------------------------------------------------------
       x    -0.00000  -0.00000  -0.00000  -0.00000  -0.00000  -0.00000
       y     0.00000  -0.00000   0.00000   0.00000   0.00000  -0.00000
       z    -0.00000   0.00000  -0.00000   0.00000  -0.00000  -0.00000
-------------------------------------------------------------------------------


  Piezoelectric Stress Matrix: (Units=10**-11 C/N)

-------------------------------------------------------------------------------
  Indices      1         2         3         4         5         6    
-------------------------------------------------------------------------------
       x    -0.00000  -0.00000  -0.00000  -0.00000  -0.00000  -0.00000
       y     0.00000  -0.00000   0.00000   0.00000   0.00000  -0.00000
       z    -0.00000   0.00000  -0.00000   0.00000  -0.00000  -0.00000
-------------------------------------------------------------------------------


  Static dielectric constant tensor : 

-------------------------------------------------------------------------------
              x         y         z
-------------------------------------------------------------------------------
       x     2.69429  -0.00000   0.00000
       y    -0.00000   2.69429   0.00000
       z     0.00000   0.00000   2.22327
--------------------------------------------------------------------------------

  High frequency dielectric constant tensor : 

-------------------------------------------------------------------------------
              x         y         z
-------------------------------------------------------------------------------
       x     2.11991  -0.00000   0.00000
       y    -0.00000   2.11991   0.00000
       z     0.00000   0.00000   1.97865
-------------------------------------------------------------------------------

  Static refractive indices : 

-------------------------------------------------------------------------------
    1 =    1.49106      2 =    1.64143      3 =    1.64143
-------------------------------------------------------------------------------

  High frequency refractive indices : 

-------------------------------------------------------------------------------
    1 =    1.40664      2 =    1.45599      3 =    1.45599
-------------------------------------------------------------------------------


  Time to end of optimisation =       0.4022 seconds

********************************************************************************
*  Defect calculation for configuration   1 :                                  *
********************************************************************************



!!!!!!!!!!!!!!!!!!!!!!!!!!!!!!!!!!!!!!!!!!!!!!!!!!!!!!!!!!!!!!!!!!!!!!!!!!!!!!!!
!! WARNING : Ambiguous vacancy specifier used
!!!!!!!!!!!!!!!!!!!!!!!!!!!!!!!!!!!!!!!!!!!!!!!!!!!!!!!!!!!!!!!!!!!!!!!!!!!!!!!!



!!!!!!!!!!!!!!!!!!!!!!!!!!!!!!!!!!!!!!!!!!!!!!!!!!!!!!!!!!!!!!!!!!!!!!!!!!!!!!!!
!! WARNING : Ambiguous vacancy specifier used
!!!!!!!!!!!!!!!!!!!!!!!!!!!!!!!!!!!!!!!!!!!!!!!!!!!!!!!!!!!!!!!!!!!!!!!!!!!!!!!!

  Total number of defects =      2

  Total charge on defect  =   1.00

  Defect centre is at   0.0737   0.4439   0.7053  Frac

  Region 1 radius =  15.0000      Number of ions =    918

  Region 2 radius =  24.0000      Number of ions =   2745

  Region 2a mode = 4 : screened electrostatics due to region 1 
                       neglect correction to region 1 forces from 2a
                       region 2a displacements based on defects only

  Region 2a ions will only interact with defects in region 1

  Vacancies:

--------------------------------------------------------------------------------
    Specification type     Symbol/Number         x          y          z
--------------------------------------------------------------------------------
    Atom                    Cl    core
    Atom                    Cl    shel
--------------------------------------------------------------------------------


  Components of defect energy : 

--------------------------------------------------------------------------------
  Region 1 - region 1                   =      5.07660554 eV
  Region 1 - region 2a (unrelaxed)      =      5.20749903 eV
  Region 1 - 2a (relaxed - correction)  =     -0.20979307 eV
  Region 1 (Total)                      =     10.07431150 eV
  Region 2a                             =      0.10490618 eV
  Region 2b                             =     -0.18241543 eV
--------------------------------------------------------------------------------
  Total defect energy                   =      9.99680224 eV
--------------------------------------------------------------------------------

  Largest displacement in region 2 =   0.0073 Angstroms


  Number of variables =     2754

  Maximum number of calculations  =        1000
  Maximum Hessian update interval =          10
  Maximum step size               =   1.0000000
  Maximum parameter tolerance     =   0.0000100
  Maximum function  tolerance     =   0.0000100
  Maximum gradient  tolerance     =   0.0010000

  Symmetry adapted optimisation

  Newton-Raphson optimiser to be used

  BFGS hessian update to be used

  Lower half triangular hessian to be used

  Start of defect optimisation :

  Cycle:      0 Defect Energy:   9.996802  Gnorm:     0.006516  CPU:   17.678
  ** Hessian calculated **
  Cycle:      1 Defect Energy:   8.971501  Gnorm:     0.005293  CPU:   69.737
  Cycle:      2 Defect Energy:   7.773747  Gnorm:     0.003374  CPU:  104.903
  Cycle:      3 Defect Energy:   6.869818  Gnorm:     0.000652  CPU:  126.574
  Cycle:      4 Defect Energy:   6.821657  Gnorm:     0.000441  CPU:  131.474
  Cycle:      5 Defect Energy:   6.786312  Gnorm:     0.000305  CPU:  136.443
  Cycle:      6 Defect Energy:   6.774344  Gnorm:     0.000257  CPU:  141.345
  ** Hessian calculated **
  Cycle:      7 Defect Energy:   6.752095  Gnorm:     0.000180  CPU:  177.348
  Cycle:      8 Defect Energy:   6.740550  Gnorm:     0.000127  CPU:  180.969
  Cycle:      9 Defect Energy:   6.734212  Gnorm:     0.000090  CPU:  184.377
  Cycle:     10 Defect Energy:   6.730730  Gnorm:     0.000063  CPU:  187.890
  Cycle:     11 Defect Energy:   6.728858  Gnorm:     0.000045  CPU:  191.735
  Cycle:     12 Defect Energy:   6.727873  Gnorm:     0.000032  CPU:  195.738
  Cycle:     13 Defect Energy:   6.727355  Gnorm:     0.000022  CPU:  199.752
  Cycle:     14 Defect Energy:   6.727091  Gnorm:     0.000016  CPU:  203.959
  Cycle:     15 Defect Energy:   6.726946  Gnorm:     0.000011  CPU:  208.621
  Cycle:     16 Defect Energy:   6.726884  Gnorm:     0.000008  CPU:  212.228
  ** Hessian calculated **
  Cycle:     17 Defect Energy:   6.726846  Gnorm:     0.000005  CPU:  247.694
  Cycle:     18 Defect Energy:   6.726831  Gnorm:     0.000004  CPU:  251.848


  **** Optimisation achieved ****


  Final defect energy  =        6.72682916
  Final defect Gnorm   =        0.00000267

  Components of defect energy : 

--------------------------------------------------------------------------------
  Region 1 - region 1                   =      2.29941836 eV
  Region 1 - region 2a (unrelaxed)      =      4.70496173 eV
  Region 1 - 2a (relaxed - correction)  =     -0.18989064 eV
  Region 1 (Total)                      =      6.81448946 eV
  Region 2a                             =      0.09491204 eV
  Region 2b                             =     -0.18257234 eV
--------------------------------------------------------------------------------
  Total defect energy                   =      6.72682916 eV
--------------------------------------------------------------------------------

  Largest displacement in region 2 =   0.0073 Angstroms

  Final coordinates of region 1 :

--------------------------------------------------------------------------------
   No.  Atomic        x           y           z          Radius      Charge
        Label       (Angs)      (Angs)      (Angs)       (Angs)       (e) 
--------------------------------------------------------------------------------
     1  Sc    c    -3.494297   -2.006171    6.147861    0.000000    3.000000
     2  Sc    c     0.337890    0.204667    6.152182    0.000000    3.000000
     3  Cl    c    -1.815789   -0.487308    5.265432    0.000000    1.485000
     4  Cl    c    -4.338950   -0.261180    7.703171    0.000000    1.485000
     5  Cl    c    -0.751179    1.809459    7.706494    0.000000    1.485000
     6  Cl    c    -3.803971   -3.674803    7.954148    0.000000    1.485000
     7  Cl    c     1.938661   -0.360883    7.957827    0.000000    1.485000
     8  Cl    c    -2.370070   -3.776644    4.822697    0.000000    1.485000
     9  Cl    c     1.308269   -1.654673    4.826995    0.000000    1.485000
    10  Cl    c    -1.065500   -5.630686    7.869372    0.000000    1.485000
    11  Cl    c     2.262750   -3.711445    7.871138    0.000000    1.485000
    12  Cl    c    -1.991357    0.176860   11.388071    0.000000    1.485000
    13  Cl    c     0.832677   -1.817553   11.381276    0.000000    1.485000
    14  Cl    c    -1.998788   -3.810041   11.394744    0.000000    1.485000
    15  Sc    c    -3.111093   -5.583536    6.436527    0.000000    3.000000
    16  Sc    c     3.244724   -1.915248    6.439708    0.000000    3.000000
    17  Cl    c    -5.419444   -1.568389    4.658450    0.000000    1.485000
    18  Cl    c     0.922832    2.090083    4.662092    0.000000    1.485000
    19  Cl    c     1.155932    1.635152   11.386409    0.000000    1.485000
    20  Sc    c     0.004342    0.001001   12.898023    0.000000    3.000000
    21  Cl    c     1.175238   -5.669556    4.910732    0.000000    1.485000
    22  Sc    c     0.002823   -3.638981   12.895002    0.000000    3.000000
    23  Cl    c    -5.441014   -1.819416   11.388117    0.000000    1.485000
    24  Sc    c    -6.430266    0.065466    6.313752    0.000000    3.000000
    25  Sc    c     0.012115    3.783193    6.316194    0.000000    3.000000
    26  Cl    c     1.153993   -5.274235   11.386617    0.000000    1.485000
    27  Sc    c     0.051466   -7.341844    6.403198    0.000000    3.000000
    28  Sc    c     3.185538   -5.533128    6.402957    0.000000    3.000000
    29  Cl    c    -5.481025    1.868048    4.868166    0.000000    1.485000
    30  Cl    c    -2.022562    3.862670    4.869134    0.000000    1.485000
    31  Cl    c    -5.137662    1.632475   11.374765    0.000000    1.485000
    32  Cl    c    -4.280960    3.782055    7.859774    0.000000    1.485000
    33  Cl    c    -7.430483   -1.664968    7.815140    0.000000    1.485000
    34  Cl    c    -1.962616   -7.188247    4.911356    0.000000    1.485000
    35  Cl    c     4.059661   -3.710901    4.912707    0.000000    1.485000
    36  Cl    c     2.011340    3.785923    7.816813    0.000000    1.485000
    37  Cl    c    -4.298735   -7.142581    7.979473    0.000000    1.485000
    38  Cl    c     5.189936   -1.665719    7.980987    0.000000    1.485000
    39  Cl    c     2.034170   -7.157563    7.918121    0.000000    1.485000
    40  Cl    c    -5.169424   -5.601425    5.015770    0.000000    1.485000
    41  Cl    c     4.287863   -0.141713    5.017700    0.000000    1.485000
    42  Sc    c    -3.148977    1.822168   12.888233    0.000000    3.000000
    43  Cl    c    -1.155561   -1.990753    1.463994    0.000000    1.485000
    44  Cl    c    -2.294662    3.637657   11.388411    0.000000    1.485000
    45  Cl    c    -5.137622   -5.272118   11.382584    0.000000    1.485000
    46  Cl    c    -0.866297   -1.818901   14.378990    0.000000    1.485000
    47  Sc    c    -3.148896   -5.458109   12.897526    0.000000    3.000000
    48  Cl    c     4.300525    0.166246   11.396870    0.000000    1.485000
    49  Cl    c    -2.293624   -7.271303   11.395821    0.000000    1.485000
    50  Cl    c     4.298126   -3.799718   11.396047    0.000000    1.485000
    51  Cl    c    -7.134892    1.849562    7.907735    0.000000    1.485000
    52  Cl    c    -1.181158    5.286831    7.908511    0.000000    1.485000
    53  Cl    c    -3.981022   -0.006030    1.472211    0.000000    1.485000
    54  Cl    c    -1.143729    1.658855   14.378595    0.000000    1.485000
    55  Cl    c    -1.144045    1.982246    1.461511    0.000000    1.485000
    56  Cl    c    -4.291971   -3.455991    1.468040    0.000000    1.485000
    57  Sc    c    -6.295472    0.000034   12.887237    0.000000    3.000000
    58  Cl    c     1.989398   -3.448454    1.486433    0.000000    1.485000
    59  Cl    c    -7.446971   -5.593280    7.948744    0.000000    1.485000
    60  Cl    c    -4.281878    0.152750   14.370099    0.000000    1.485000
    61  Cl    c     5.421106    1.834796    7.950176    0.000000    1.485000
    62  Cl    c     2.288144    0.002694    1.468292    0.000000    1.485000
    63  Sc    c    -6.295935   -3.636899   12.890223    0.000000    3.000000
    64  Sc    c     3.155234    1.818050   12.892881    0.000000    3.000000
    65  Cl    c     2.013220    0.155877   14.380515    0.000000    1.485000
    66  Cl    c    -0.855632   -5.448211    1.475249    0.000000    1.485000
    67  Cl    c    -0.856665   -9.114993    7.913400    0.000000    1.485000
    68  Cl    c     5.174385   -5.633006    7.914346    0.000000    1.485000
    69  Cl    c    -1.142048   -5.290727   14.385657    0.000000    1.485000
    70  Sc    c    -6.314778    3.681804    6.399020    0.000000    3.000000
    71  Sc    c    -3.176986    5.492677    6.398417    0.000000    3.000000
    72  Cl    c    -4.285321   -3.788088   14.376901    0.000000    1.485000
    73  Cl    c     2.013107   -3.785783   14.377146    0.000000    1.485000
    74  Sc    c     3.153709   -5.452502   12.892215    0.000000    3.000000
    75  Sc    c    -6.319176   -7.285301    6.488529    0.000000    3.000000
    76  Sc    c     6.322125    0.012791    6.488795    0.000000    3.000000
    77  Cl    c    -8.464712   -0.130400    4.884965    0.000000    1.485000
    78  Cl    c     1.198257    5.446112    4.885610    0.000000    1.485000
    79  Sc    c    -3.149435   -1.819413   -0.048952    0.000000    3.000000
    80  Cl    c    -8.292617    0.172910   11.385586    0.000000    1.485000
    81  Cl    c     3.995181    3.635622   11.388058    0.000000    1.485000
    82  Cl    c    -8.605420   -3.652267    4.934933    0.000000    1.485000
    83  Sc    c     0.003544   -3.640118   -0.030559    0.000000    3.000000
    84  Cl    c     4.319555    3.808522    4.936190    0.000000    1.485000
    85  Cl    c    -8.294214   -3.806808   11.390204    0.000000    1.485000
    86  Cl    c     0.887068   -9.167224    4.917855    0.000000    1.485000
    87  Cl    c     4.349278   -7.169710    4.918540    0.000000    1.485000
    88  Cl    c     1.145388    5.618407   11.396934    0.000000    1.485000
    89  Sc    c    -9.506814   -1.838150    6.407128    0.000000    3.000000
    90  Sc    c     3.198605    5.496848    6.407134    0.000000    3.000000
    91  Cl    c     3.998513   -7.269658   11.390232    0.000000    1.485000
    92  Cl    c    -5.167695    5.317656    4.891414    0.000000    1.485000
    93  Cl    c     1.143265   -9.251279   11.399978    0.000000    1.485000
    94  Cl    c    -4.293001    3.452368    1.482288    0.000000    1.485000
    95  Cl    c     1.992162    3.454595    1.480240    0.000000    1.485000
    96  Sc    c    -3.149221    1.820061   -0.034388    0.000000    3.000000
    97  Cl    c    -4.015314    3.635753   14.377955    0.000000    1.485000
    98  Cl    c    -7.151785   -1.816748   14.381209    0.000000    1.485000
    99  Sc    c    -3.148166    5.457393   12.891252    0.000000    3.000000
   100  Cl    c    -7.434710   -1.980223    1.474734    0.000000    1.485000
   101  Cl    c    -5.149650    5.621825   11.393927    0.000000    1.485000
   102  Cl    c     5.141583   -1.983986    1.485072    0.000000    1.485000
   103  Sc    c     3.150459   -1.817600   -0.025037    0.000000    3.000000
   104  Cl    c     7.147173   -1.816546   11.392542    0.000000    1.485000
   105  Cl    c     2.274040    3.630152   14.377902    0.000000    1.485000
   106  Cl    c    -4.014602   -7.272933   14.386050    0.000000    1.485000
   107  Cl    c    -5.426480   -9.077985    4.988259    0.000000    1.485000
   108  Cl    c     7.428673   -1.656925    4.989204    0.000000    1.485000
   109  Sc    c     6.303032   -0.000788   12.899223    0.000000    3.000000
   110  Cl    c    -4.289009   -7.427895    1.482400    0.000000    1.485000
   111  Cl    c     2.000291   -7.430336    1.485987    0.000000    1.485000
   112  Sc    c    -3.147862   -9.092763   12.895775    0.000000    3.000000
   113  Sc    c     6.301616   -3.634906   12.896227    0.000000    3.000000
   114  Sc    c    -9.457219   -5.463898    6.449506    0.000000    3.000000
   115  Sc    c     6.313827    3.641124    6.451623    0.000000    3.000000
   116  Cl    c     5.425732   -1.818109   14.382878    0.000000    1.485000
   117  Cl    c     2.275690   -7.264075   14.379877    0.000000    1.485000
   118  Cl    c    -5.150891   -9.254202   11.400217    0.000000    1.485000
   119  Cl    c    -7.444479    5.312037    7.919319    0.000000    1.485000
   120  Cl    c    -4.024409    7.285179    7.919741    0.000000    1.485000
   121  Cl    c   -10.296703   -3.641507    7.949753    0.000000    1.485000
   122  Cl    c     5.154732    5.279910    7.950690    0.000000    1.485000
   123  Cl    c    -8.332651    3.813998    4.928956    0.000000    1.485000
   124  Cl    c    -2.282424    7.307285    4.929746    0.000000    1.485000
   125  Cl    c    -1.995097    7.096517   11.388127    0.000000    1.485000
   126  Sc    c    -0.001602  -10.957785    6.437439    0.000000    3.000000
   127  Cl    c    -8.289992   -7.103339    4.957923    0.000000    1.485000
   128  Sc    c     6.343717   -7.294726    6.439047    0.000000    3.000000
   129  Cl    c     7.149624    1.811212    4.958916    0.000000    1.485000
   130  Cl    c   -10.593736   -0.170774    7.923118    0.000000    1.485000
   131  Cl    c     2.297874    7.271211    7.923829    0.000000    1.485000
   132  Cl    c    -0.856729    5.444204    1.475973    0.000000    1.485000
   133  Sc    c     0.002442    3.639581   -0.033533    0.000000    3.000000
   134  Cl    c    -7.136673   -5.447368    1.490737    0.000000    1.485000
   135  Cl    c    -7.165436   -9.106476    7.976506    0.000000    1.485000
   136  Cl    c     8.322163   -0.164443    7.977275    0.000000    1.485000
   137  Cl    c    -2.285187    0.004728   -1.527878    0.000000    1.485000
   138  Cl    c    -1.998113   -3.477514   -1.526422    0.000000    1.485000
   139  Cl    c    -7.428632    1.662509   14.375067    0.000000    1.485000
   140  Sc    c    -6.301707   -3.636798   -0.025170    0.000000    3.000000
   141  Sc    c     3.151436    1.821058   -0.028244    0.000000    3.000000
   142  Cl    c     5.154173    1.653558   14.389310    0.000000    1.485000
   143  Cl    c    -7.437009    1.978835    1.482422    0.000000    1.485000
   144  Cl    c     1.141170   -1.974568   -1.513301    0.000000    1.485000
   145  Sc    c     3.147968    5.452771   12.895361    0.000000    3.000000
   146  Cl    c     5.143047    1.983885    1.481210    0.000000    1.485000
   147  Cl    c    -1.150527   -8.907727    1.495252    0.000000    1.485000
   148  Cl    c    -1.139247    5.603358   14.378786    0.000000    1.485000
   149  Cl    c    -8.582936    3.636672   11.395116    0.000000    1.485000
   150  Cl    c    -7.431140   -5.295221   14.381120    0.000000    1.485000
   151  Sc    c     0.001748   -7.275619   -0.016046    0.000000    3.000000
   152  Cl    c     5.152459   -5.285649   14.389505    0.000000    1.485000
   153  Cl    c    -1.996231  -10.733312   11.393945    0.000000    1.485000
   154  Cl    c     7.444007    1.652553   11.403330    0.000000    1.485000
   155  Cl    c    -2.012881  -11.083893    4.952131    0.000000    1.485000
   156  Cl    c     7.457526   -5.616190    4.952607    0.000000    1.485000
   157  Cl    c    -4.288125  -11.066545    7.946885    0.000000    1.485000
   158  Cl    c     8.581321   -3.637570    7.947269    0.000000    1.485000
   159  Cl    c     5.431115   -5.447636    1.488096    0.000000    1.485000
   160  Cl    c     1.999275  -11.074500    7.937390    0.000000    1.485000
   161  Cl    c     5.444376   -9.086881    7.937705    0.000000    1.485000
   162  Cl    c    -8.582325   -7.269586   11.398585    0.000000    1.485000
   163  Sc    c     3.147696   -9.086591   12.895384    0.000000    3.000000
   164  Cl    c     7.445253   -5.286748   11.401399    0.000000    1.485000
   165  Cl    c    -1.139656   -9.238960   14.384377    0.000000    1.485000
   166  Cl    c    -2.291233    0.000410   17.862594    0.000000    1.485000
   167  Cl    c    -1.999559   -3.465093   17.861752    0.000000    1.485000
   168  Cl    c    -5.163161   -1.981713   -1.523351    0.000000    1.485000
   169  Cl    c     1.145489   -1.984406   17.863040    0.000000    1.485000
   170  Sc    c    -9.442368    1.818866   12.890127    0.000000    3.000000
   171  Sc    c     0.000898    7.271088   12.895515    0.000000    3.000000
   172  Cl    c     1.143399    1.976703   -1.517890    0.000000    1.485000
   173  Cl    c     0.869599   -5.460873   -1.511217    0.000000    1.485000
   174  Sc    c    -9.443338   -5.453516   12.894317    0.000000    3.000000
   175  Sc    c     0.001450  -10.904800   12.899176    0.000000    3.000000
   176  Cl    c   -11.524487   -1.672111    4.942485    0.000000    1.485000
   177  Cl    c     4.063470    7.327870    4.943243    0.000000    1.485000
   178  Sc    c    -6.300296  -10.912483    6.463134    0.000000    3.000000
   179  Sc    c     9.453957   -1.817065    6.464670    0.000000    3.000000
   180  Cl    c    -2.004221    3.474423   -1.522182    0.000000    1.485000
   181  Cl    c    -5.148124   -1.985034   17.862574    0.000000    1.485000
   182  Sc    c    -6.298799    3.634956   -0.014355    0.000000    3.000000
   183  Cl    c    -5.163535    1.974025   -1.510283    0.000000    1.485000
   184  Cl    c     4.008180   -0.000129   -1.517143    0.000000    1.485000
   185  Cl    c     1.145931    1.983020   17.864031    0.000000    1.485000
   186  Cl    c   -10.577737    3.794358    7.931998    0.000000    1.485000
   187  Cl    c    -1.143165    9.241598    7.932732    0.000000    1.485000
   188  Cl    c     0.855024   -5.450117   17.862074    0.000000    1.485000
   189  Cl    c     4.296088    7.099590   11.398173    0.000000    1.485000
   190  Cl    c   -10.588650   -7.117084    7.947469    0.000000    1.485000
   191  Cl    c     8.312196    3.795116    7.948108    0.000000    1.485000
   192  Cl    c    -1.160812  -12.576188    7.952122    0.000000    1.485000
   193  Cl    c     8.325777   -7.099561    7.952391    0.000000    1.485000
   194  Sc    c    -6.295422   -7.271382   -0.011648    0.000000    3.000000
   195  Sc    c    -9.465958    5.468819    6.438665    0.000000    3.000000
   196  Sc    c    -3.149717    9.115220    6.440278    0.000000    3.000000
   197  Cl    c    -5.428221   -5.455280   -1.506554    0.000000    1.485000
   198  Cl    c     4.291806   -3.481243   -1.504656    0.000000    1.485000
   199  Sc    c    -3.147636   -9.088496   -0.009712    0.000000    3.000000
   200  Sc    c     6.298066   -3.635226   -0.008829    0.000000    3.000000
   201  Cl    c    -2.007748   -7.428451   -1.502096    0.000000    1.485000
   202  Cl    c   -11.728355   -1.816563   11.400659    0.000000    1.485000
   203  Cl    c     4.295801  -10.734920   11.400126    0.000000    1.485000
   204  Cl    c    -1.999728    3.464337   17.861532    0.000000    1.485000
   205  Cl    c    -7.141808    5.446141    1.495897    0.000000    1.485000
   206  Cl    c   -10.286944    0.000099    1.496631    0.000000    1.485000
   207  Cl    c     4.288544  -11.062649    4.962515    0.000000    1.485000
   208  Cl    c    -5.147179    1.983677   17.863078    0.000000    1.485000
   209  Cl    c    -4.289873    7.106286   14.388228    0.000000    1.485000
   210  Cl    c     2.000716    7.098747   14.393290    0.000000    1.485000
   211  Cl    c   -11.442718    1.645663   11.393137    0.000000    1.485000
   212  Cl    c     4.000633    0.000539   17.861137    0.000000    1.485000
   213  Sc    c    -3.162041  -12.733681    6.450944    0.000000    3.000000
   214  Sc    c     9.461805   -5.445474    6.450042    0.000000    3.000000
   215  Cl    c   -11.456052   -5.623551    4.954068    0.000000    1.485000
   216  Cl    c     7.450451    5.291796    4.954650    0.000000    1.485000
   217  Sc    c    -6.296161    7.272093   12.895618    0.000000    3.000000
   218  Sc    c    -9.447809   -1.814779   -0.013397    0.000000    3.000000
   219  Cl    c     0.857758    9.089459   11.402399    0.000000    1.485000
   220  Cl    c   -11.441847   -5.279971   11.394556    0.000000    1.485000
   221  Cl    c   -11.731629    1.816697    4.958799    0.000000    1.485000
   222  Cl    c     1.146399    9.250704    4.959434    0.000000    1.485000
   223  Cl    c    -5.436007   -5.449702   17.864142    0.000000    1.485000
   224  Cl    c     4.292388   -3.468525   17.863391    0.000000    1.485000
   225  Cl    c    -4.287988    7.426279    1.489188    0.000000    1.485000
   226  Cl    c     2.001388    7.426206    1.486024    0.000000    1.485000
   227  Cl    c   -10.580398   -3.467713    1.489235    0.000000    1.485000
   228  Cl    c     1.154783  -12.602667    4.949942    0.000000    1.485000
   229  Cl    c     7.189870   -9.117627    4.950137    0.000000    1.485000
   230  Cl    c    -7.437822   -8.914210    1.494078    0.000000    1.485000
   231  Cl    c     8.291804   -3.461319    1.496658    0.000000    1.485000
   232  Cl    c    -2.002531   -7.432454   17.864583    0.000000    1.485000
   233  Cl    c     5.144827   -8.908404    1.501644    0.000000    1.485000
   234  Cl    c    -7.428538    5.604184   14.382583    0.000000    1.485000
   235  Cl    c   -10.572566    0.155474   14.381578    0.000000    1.485000
   236  Cl    c     5.430375    5.446791    1.487375    0.000000    1.485000
   237  Cl    c     5.152034    5.603697   14.387703    0.000000    1.485000
   238  Cl    c    -4.005737  -10.899519    1.491734    0.000000    1.485000
   239  Cl    c     8.303431    0.160948   14.394320    0.000000    1.485000
   240  Sc    c   -12.617870    0.009847    6.450029    0.000000    3.000000
   241  Cl    c    -4.290694  -10.741012   14.393120    0.000000    1.485000
   242  Sc    c     3.153639    9.115136    6.451691    0.000000    3.000000
   243  Sc    c    -3.146857   -1.817038   19.361285    0.000000    3.000000
   244  Cl    c     2.002122  -10.731680   14.396101    0.000000    1.485000
   245  Cl    c   -10.574963   -3.788864   14.383584    0.000000    1.485000
   246  Sc    c     3.150720   -9.088359   -0.004274    0.000000    3.000000
   247  Cl    c     8.301834   -3.793100   14.392358    0.000000    1.485000
   248  Sc    c     0.000740   -3.634221   19.362730    0.000000    3.000000
   249  Sc    c    -6.296352  -10.906531   12.899877    0.000000    3.000000
   250  Cl    c     8.575685   -0.000452    1.490264    0.000000    1.485000
   251  Cl    c     7.440634    5.613945   11.407903    0.000000    1.485000
   252  Cl    c     2.287009  -10.900266    1.493408    0.000000    1.485000
   253  Cl    c    -8.294521    7.097945   11.394383    0.000000    1.485000
   254  Cl    c     0.858572  -12.722150   11.404674    0.000000    1.485000
   255  Cl    c    -7.430680   -9.239184   14.386388    0.000000    1.485000
   256  Cl    c     5.151093   -9.237395   14.389298    0.000000    1.485000
   257  Cl    c     0.866130    5.462126   -1.513587    0.000000    1.485000
   258  Cl    c    -8.308334   -3.470039   -1.510302    0.000000    1.485000
   259  Sc    c    -9.446819    1.818833   -0.009371    0.000000    3.000000
   260  Cl    c    -8.586828    7.277676    4.947817    0.000000    1.485000
   261  Cl    c    -5.154925    9.257853    4.948071    0.000000    1.485000
   262  Sc    c    -0.000136    7.273712   -0.012492    0.000000    3.000000
   263  Sc    c    -9.440736    5.452229   12.897295    0.000000    3.000000
   264  Sc    c     3.157822  -12.729742    6.452890    0.000000    3.000000
   265  Sc    c     6.298375  -10.916837    6.451802    0.000000    3.000000
   266  Cl    c     4.295082    3.481153   -1.509938    0.000000    1.485000
   267  Cl    c    -5.157967  -12.546228    4.948683    0.000000    1.485000
   268  Cl    c    10.297245   -3.622358    4.948833    0.000000    1.485000
   269  Cl    c     7.439037   -9.247560   11.408765    0.000000    1.485000
   270  Cl    c    -5.434816    9.090379   11.404279    0.000000    1.485000
   271  Sc    c     6.299035    3.636685   -0.011010    0.000000    3.000000
   272  Cl    c    -8.576972    0.002672   -1.500766    0.000000    1.485000
   273  Cl    c    -8.293655  -10.732447   11.396859    0.000000    1.485000
   274  Cl    c     1.147769   -8.930370   -1.502731    0.000000    1.485000
   275  Sc    c    -3.146363    1.817391   19.362687    0.000000    3.000000
   276  Cl    c    -8.302947  -11.055709    4.967740    0.000000    1.485000
   277  Cl    c    10.578312   -0.154803    4.967854    0.000000    1.485000
   278  Sc    c    -9.440745   -9.086756   12.898424    0.000000    3.000000
   279  Sc    c     9.447839    1.819296   12.903015    0.000000    3.000000
   280  Sc    c     6.295005   -7.268443   -0.004323    0.000000    3.000000
   281  Sc    c     3.148279   -1.817237   19.360987    0.000000    3.000000
   282  Cl    c     4.286121   -7.424901   -1.493951    0.000000    1.485000
   283  Cl    c    -1.149452    8.909693    1.496096    0.000000    1.485000
   284  Sc    c     9.447183   -5.453260   12.903462    0.000000    3.000000
   285  Cl    c   -10.295717    3.631704   14.391042    0.000000    1.485000
   286  Cl    c     0.857110    5.451233   17.863716    0.000000    1.485000
   287  Cl    c    10.588953    0.164944   11.407800    0.000000    1.485000
   288  Cl    c    -5.436632  -12.722768   11.404995    0.000000    1.485000
   289  Cl    c    -8.294163   -3.466143   17.862514    0.000000    1.485000
   290  Cl    c     4.291343    3.467344   17.864045    0.000000    1.485000
   291  Cl    c    10.587967   -3.798666   11.407741    0.000000    1.485000
   292  Cl    c   -10.584307    3.471239    1.490002    0.000000    1.485000
   293  Cl    c    -5.425797    5.452125   -1.498082    0.000000    1.485000
   294  Cl    c     8.291331    3.461997    1.496607    0.000000    1.485000
   295  Cl    c    -8.581663    0.000598   17.864917    0.000000    1.485000
   296  Cl    c    -0.867194    9.081074   14.391405    0.000000    1.485000
   297  Cl    c    -5.149495   -8.921783   -1.505582    0.000000    1.485000
   298  Cl    c    -7.432753    9.241181    7.939047    0.000000    1.485000
   299  Cl    c   -10.297743   -7.267385   14.393095    0.000000    1.485000
   300  Cl    c   -13.739556   -1.649845    7.951038    0.000000    1.485000
   301  Cl    c     1.146214   -8.917066   17.862404    0.000000    1.485000
   302  Cl    c     5.152809    9.257419    7.951205    0.000000    1.485000
   303  Sc    c   -12.587878   -0.000300   12.898820    0.000000    3.000000
   304  Cl    c    -7.443197  -12.565299    7.954259    0.000000    1.485000
   305  Cl    c    11.457772   -1.653249    7.954280    0.000000    1.485000
   306  Cl    c     5.149802  -12.553000    7.959882    0.000000    1.485000
   307  Sc    c   -12.588184   -3.633420   12.898118    0.000000    3.000000
   308  Sc    c     6.295978    7.268028   12.902062    0.000000    3.000000
   309  Sc    c   -12.595290    3.636420    6.451259    0.000000    3.000000
   310  Sc    c     0.001847   10.909193    6.450745    0.000000    3.000000
   311  Sc    c     0.000972    3.634473   19.361764    0.000000    3.000000
   312  Sc    c    -6.294281   -3.633984   19.362994    0.000000    3.000000
   313  Sc    c     3.147937    1.816948   19.363054    0.000000    3.000000
   314  Cl    c   -11.464695    5.288916    4.943988    0.000000    1.485000
   315  Cl    c    -1.995205   10.755742    4.944461    0.000000    1.485000
   316  Cl    c     7.435679   -1.974211   -1.497273    0.000000    1.485000
   317  Cl    c   -10.304907    7.278581    7.948478    0.000000    1.485000
   318  Cl    c    -4.298513   10.747174    7.948697    0.000000    1.485000
   319  Cl    c   -13.442087    1.826123    7.961987    0.000000    1.485000
   320  Cl    c     1.992342   10.737758    7.962461    0.000000    1.485000
   321  Cl    c     4.291089   -7.431733   17.865150    0.000000    1.485000
   322  Cl    c   -10.584035   -7.429227    1.492129    0.000000    1.485000
   323  Cl    c     8.296143   -7.426424    1.493889    0.000000    1.485000
   324  Sc    c   -12.599051   -7.277810    6.454140    0.000000    3.000000
   325  Sc    c     9.455459    5.455397    6.453370    0.000000    3.000000
   326  Sc    c     0.000673   -7.268346   19.361352    0.000000    3.000000
   327  Cl    c    -8.302621    3.470898   -1.505264    0.000000    1.485000
   328  Cl    c     8.573883    3.631817   14.394844    0.000000    1.485000
   329  Cl    c    -0.856775   -1.817256   -4.958930    0.000000    1.485000
   330  Cl    c    -0.865272  -12.715915   14.394769    0.000000    1.485000
   331  Sc    c     6.295430  -10.901701   12.903995    0.000000    3.000000
   332  Sc    c    -6.294487    7.268591   -0.003999    0.000000    3.000000
   333  Cl    c    -1.144675  -12.878286    1.494133    0.000000    1.485000
   334  Cl    c    -5.435261    5.449185   17.862774    0.000000    1.485000
   335  Cl    c    -1.141301   -1.976427   20.853455    0.000000    1.485000
   336  Cl    c    -5.146703   -8.915721   17.862564    0.000000    1.485000
   337  Cl    c     8.574424   -7.266227   14.395043    0.000000    1.485000
   338  Cl    c   -11.445679    5.614577   11.404565    0.000000    1.485000
   339  Cl    c    -2.008861    7.427954   -1.499802    0.000000    1.485000
   340  Cl    c    10.297431    3.638218   11.404910    0.000000    1.485000
   341  Cl    c     7.154536   -5.452827   -1.501770    0.000000    1.485000
   342  Cl    c    -8.304325   -7.427685   -1.496746    0.000000    1.485000
   343  Cl    c     7.436347   -1.983063   17.862246    0.000000    1.485000
   344  Cl    c   -13.727402   -5.612371    7.946166    0.000000    1.485000
   345  Cl    c     8.577361    7.264538    7.946412    0.000000    1.485000
   346  Cl    c    -2.002809   11.063418   11.409598    0.000000    1.485000
   347  Sc    c     9.443365   -1.815730   -0.004223    0.000000    3.000000
   348  Cl    c    -4.023960  -14.546124    7.945375    0.000000    1.485000
   349  Cl    c    11.461731   -5.604650    7.945505    0.000000    1.485000
   350  Cl    c     7.437314    1.974500   -1.498006    0.000000    1.485000
   351  Cl    c    -2.281145  -10.905329   -1.497515    0.000000    1.485000
   352  Cl    c    10.298689   -7.271309   11.405624    0.000000    1.485000
   353  Cl    c    -1.146710    1.648797   -4.957617    0.000000    1.485000
   354  Cl    c   -11.724947   -9.087538    4.959807    0.000000    1.485000
   355  Cl    c    10.586301    3.793104    4.960055    0.000000    1.485000
   356  Cl    c   -11.446075   -9.247769   11.406114    0.000000    1.485000
   357  Cl    c    -8.294287    3.465520   17.862446    0.000000    1.485000
   358  Cl    c    -2.294325  -14.540861    4.952317    0.000000    1.485000
   359  Cl    c    10.593755   -7.100889    4.952495    0.000000    1.485000
   360  Cl    c   -10.582429  -11.060162    7.944622    0.000000    1.485000
   361  Cl    c    11.722809    1.816852    7.944663    0.000000    1.485000
   362  Cl    c    -4.289357    0.167811   -4.957108    0.000000    1.485000
   363  Cl    c     1.999142    0.167495   -4.955310    0.000000    1.485000
   364  Cl    c    -1.146422   -5.281234   -4.956712    0.000000    1.485000
   365  Cl    c     2.286231  -14.536761    7.950680    0.000000    1.485000
   366  Cl    c     8.298306  -11.064906    7.950811    0.000000    1.485000
   367  Cl    c    -4.009472   -0.000396   20.854372    0.000000    1.485000
   368  Cl    c    -4.289745   -3.799824   -4.957775    0.000000    1.485000
   369  Cl    c     1.999027   -3.799073   -4.956279    0.000000    1.485000
   370  Sc    c    -3.149307    9.085806   -0.005267    0.000000    3.000000
   371  Cl    c    -1.139935    1.976349   20.853461    0.000000    1.485000
   372  Cl    c    -4.287608   -3.473042   20.854228    0.000000    1.485000
   373  Cl    c     2.005782   -3.472104   20.854763    0.000000    1.485000
   374  Cl    c    -2.001706    7.430110   17.863395    0.000000    1.485000
   375  Cl    c     2.282165   -0.001144   20.853141    0.000000    1.485000
   376  Cl    c    -0.863772   -5.451034   20.853931    0.000000    1.485000
   377  Cl    c     7.147927   -5.451110   17.861288    0.000000    1.485000
   378  Sc    c     0.000407   10.904619   12.905973    0.000000    3.000000
   379  Cl    c    -8.294367   -7.432441   17.862179    0.000000    1.485000
   380  Cl    c    -2.003511  -14.696219   11.411060    0.000000    1.485000
   381  Sc    c    -9.442466    9.093964    6.450067    0.000000    3.000000
   382  Sc    c    -6.301000   10.907543    6.448960    0.000000    3.000000
   383  Sc    c    -6.293836    3.633693   19.361873    0.000000    3.000000
   384  Cl    c     7.436363    1.981177   17.863257    0.000000    1.485000
   385  Sc    c    -9.443623   -9.086597   -0.001359    0.000000    3.000000
   386  Sc    c     9.443282    1.816031   -0.003009    0.000000    3.000000
   387  Cl    c    -2.289729  -10.898523   17.861903    0.000000    1.485000
   388  Sc    c     9.442702    5.452521   12.908140    0.000000    3.000000
   389  Sc    c    -3.147634  -12.721859   -0.002549    0.000000    3.000000
   390  Sc    c    -6.293671   -7.267636   19.361821    0.000000    3.000000
   391  Cl    c   -14.619601   -0.151425    4.958156    0.000000    1.485000
   392  Sc    c    -3.146486   -9.084435   19.363114    0.000000    3.000000
   393  Cl    c     4.293248   10.767440    4.958287    0.000000    1.485000
   394  Sc    c     6.295060   -3.634780   19.362026    0.000000    3.000000
   395  Cl    c    -7.437167    8.915879    1.497325    0.000000    1.485000
   396  Cl    c     5.144258    8.911144    1.500164    0.000000    1.485000
   397  Cl    c    -7.155537    9.081829   14.396758    0.000000    1.485000
   398  Sc    c     0.000568  -14.537986   12.906446    0.000000    3.000000
   399  Cl    c   -13.439363   -1.816889   14.397876    0.000000    1.485000
   400  Sc    c     9.442306   -9.086627   12.906861    0.000000    3.000000
   401  Sc    c    -9.445644  -12.722438    6.453836    0.000000    3.000000
   402  Sc    c    12.593936    0.002141    6.452654    0.000000    3.000000
   403  Cl    c   -11.454301   -1.978694   -1.499849    0.000000    1.485000
   404  Sc    c     3.148309    9.085752   -0.004125    0.000000    3.000000
   405  Cl    c   -14.591117    0.165519   11.404589    0.000000    1.485000
   406  Cl    c     7.151759    9.085397   11.406043    0.000000    1.485000
   407  Sc    c   -12.590508   -3.636553   -0.001696    0.000000    3.000000
   408  Sc    c     6.294671    7.269134   -0.002750    0.000000    3.000000
   409  Cl    c   -14.592256   -3.798825   11.405148    0.000000    1.485000
   410  Cl    c   -13.727925   -1.980171    1.494376    0.000000    1.485000
   411  Cl    c     4.287879    7.425813   -1.494916    0.000000    1.485000
   412  Cl    c    11.440034   -1.982309    1.498140    0.000000    1.485000
   413  Sc    c    -9.441234   -1.816788   19.361267    0.000000    3.000000
   414  Cl    c     5.425806    9.080483   14.395004    0.000000    1.485000
   415  Cl    c   -14.864434   -3.631460    4.963617    0.000000    1.485000
   416  Cl    c     7.431168    9.240012    4.963564    0.000000    1.485000
   417  Cl    c    -4.001102    3.631300   -4.954791    0.000000    1.485000
   418  Cl    c     4.012378  -10.904130   -1.496336    0.000000    1.485000
   419  Cl    c    -7.143489   -1.817077   -4.950792    0.000000    1.485000
   420  Cl    c    -7.157479  -12.718405   14.397368    0.000000    1.485000
   421  Cl    c     4.021604  -14.540704    4.956915    0.000000    1.485000
   422  Cl    c     7.435723  -12.570686    4.956980    0.000000    1.485000
   423  Cl    c     4.288159   11.059615   11.412351    0.000000    1.485000
   424  Cl    c    -4.288155    3.473497   20.854512    0.000000    1.485000
   425  Sc    c     3.147208  -12.720854   -0.001874    0.000000    3.000000
   426  Cl    c     2.004479    3.471512   20.856089    0.000000    1.485000
   427  Cl    c     1.145295    8.927350   -1.501786    0.000000    1.485000
   428  Cl    c     2.289034    3.632719   -4.954824    0.000000    1.485000
   429  Cl    c     7.152548  -12.717731   11.407050    0.000000    1.485000
   430  Cl    c    -4.002061   -7.265898   -4.955053    0.000000    1.485000
   431  Cl    c   -11.440042   -1.984888   17.859944    0.000000    1.485000
   432  Cl    c   -13.727715    5.293655    7.946940    0.000000    1.485000
   433  Cl    c    -0.867259   12.717850    7.947277    0.000000    1.485000
   434  Sc    c     3.147691   -9.084940   19.362112    0.000000    3.000000
   435  Cl    c    -4.003656   10.897869    1.497454    0.000000    1.485000
   436  Cl    c   -13.439161   -5.452633    1.500183    0.000000    1.485000
   437  Cl    c   -13.448612   -9.092404    7.954014    0.000000    1.485000
   438  Cl    c    11.451152    5.284316    7.954144    0.000000    1.485000
   439  Cl    c   -11.451639    1.978456   -1.498900    0.000000    1.485000
   440  Cl    c    -7.433923  -12.874554    1.492370    0.000000    1.485000
   441  Cl    c   -10.578621    7.104313   14.395067    0.000000    1.485000
   442  Cl    c     7.157166    5.455512   -1.501360    0.000000    1.485000
   443  Cl    c    -7.435081   -1.975921   20.853716    0.000000    1.485000
   444  Cl    c     5.149376  -12.878609    1.495091    0.000000    1.485000
   445  Cl    c     5.152664   -1.977409   20.853753    0.000000    1.485000
   446  Cl    c     8.292975    7.100572   14.403754    0.000000    1.485000
   447  Sc    c    -6.294352   10.904623   12.907685    0.000000    3.000000
   448  Cl    c    11.718485   -1.817333   14.395884    0.000000    1.485000
   449  Cl    c     5.433916   -1.817078   -4.955978    0.000000    1.485000
   450  Cl    c     2.288768   -7.266999   -4.955072    0.000000    1.485000
   451  Cl    c     5.427229  -12.715480   14.396435    0.000000    1.485000
   452  Cl    c     2.285961   10.897536    1.495000    0.000000    1.485000
   453  Sc    c     0.000108    0.000117   -6.457056    0.000000    3.000000
   454  Cl    c   -10.292592  -10.900766    1.501545    0.000000    1.485000
   455  Cl    c   -13.723008    1.657550   14.393024    0.000000    1.485000
   456  Cl    c     4.289807    7.429401   17.862888    0.000000    1.485000
   457  Sc    c    -0.000005   -3.634345   -6.458211    0.000000    3.000000
   458  Cl    c    -4.287759   -7.425928   20.853994    0.000000    1.485000
   459  Cl    c   -10.579242    7.425013    1.492531    0.000000    1.485000
   460  Cl    c   -13.726254    1.978135    1.493212    0.000000    1.485000
   461  Cl    c     2.006021   -7.426437   20.853421    0.000000    1.485000
   462  Sc    c    -9.441024    1.817358   19.362699    0.000000    3.000000
   463  Sc    c     0.000003    7.268387   19.362853    0.000000    3.000000
   464  Cl    c    11.446284    1.653749   14.401711    0.000000    1.485000
   465  Cl    c    -8.299508   10.740900    4.949151    0.000000    1.485000
   466  Cl    c     4.001074  -10.899170   17.859681    0.000000    1.485000
   467  Cl    c     8.295071    7.429870    1.495685    0.000000    1.485000
   468  Cl    c    11.440438    1.983357    1.498463    0.000000    1.485000
   469  Cl    c    -4.284236   11.054243   14.394920    0.000000    1.485000
   470  Cl    c     4.287041  -14.693022   11.412776    0.000000    1.485000
   471  Cl    c    -4.294186  -14.362890    1.502211    0.000000    1.485000
   472  Cl    c     2.006286   11.057663   14.397122    0.000000    1.485000
   473  Cl    c     1.999508  -14.363924    1.501087    0.000000    1.485000
   474  Cl    c   -13.723028   -5.290022   14.393903    0.000000    1.485000
   475  Cl    c   -10.579147  -10.737983   14.396799    0.000000    1.485000
   476  Cl    c   -11.721240   -5.451375   -1.493077    0.000000    1.485000
   477  Sc    c   -15.743793   -1.819311    6.454227    0.000000    3.000000
   478  Sc    c     6.300619   10.907986    6.453006    0.000000    3.000000
   479  Sc    c     6.294803    3.634200   19.361472    0.000000    3.000000
   480  Cl    c    11.445648   -5.285867   14.402226    0.000000    1.485000
   481  Cl    c     8.293473  -10.733346   14.404580    0.000000    1.485000
   482  Cl    c    -5.151403    8.919051   -1.500729    0.000000    1.485000
   483  Cl    c    -7.439159    1.648762   -4.953378    0.000000    1.485000
   484  Cl    c     7.435635   -8.924242   -1.495234    0.000000    1.485000
   485  Cl    c     5.144736    1.645843   -4.951201    0.000000    1.485000
   486  Cl    c     1.145055    8.913776   17.859614    0.000000    1.485000
   487  Sc    c    12.591574   -0.000583   12.907823    0.000000    3.000000
   488  Cl    c    -1.143541    5.614429   -4.955653    0.000000    1.485000
   489  Cl    c    -7.438832   -5.280946   -4.952782    0.000000    1.485000
   490  Cl    c   -11.439402    1.983563   17.860549    0.000000    1.485000
   491  Cl    c    -0.864480    5.450020   20.854065    0.000000    1.485000
   492  Sc    c    -6.294776  -14.539110   12.906249    0.000000    3.000000
   493  Cl    c   -14.597871    3.790054    4.957583    0.000000    1.485000
   494  Sc    c    12.591262   -3.633695   12.906504    0.000000    3.000000
   495  Cl    c     0.869935   12.721031    4.957934    0.000000    1.485000
   496  Cl    c     5.145010   -5.277777   -4.950574    0.000000    1.485000
   497  Cl    c    -7.156063   -5.450884   20.855652    0.000000    1.485000
   498  Sc    c   -12.590517  -10.906326    6.452376    0.000000    3.000000
   499  Cl    c     7.146501    5.449613   17.859249    0.000000    1.485000
   500  Cl    c     1.145407   12.551417   11.405880    0.000000    1.485000
   501  Sc    c    12.593575    3.633736    6.453597    0.000000    3.000000
   502  Cl    c   -14.594713   -7.103449    4.952899    0.000000    1.485000
   503  Sc    c     6.295257   -7.268957   19.361526    0.000000    3.000000
   504  Cl    c    10.302217    7.271599    4.953048    0.000000    1.485000
   505  Cl    c     1.139355  -12.874851   -1.491671    0.000000    1.485000
   506  Cl    c    -7.433794    1.975823   20.853659    0.000000    1.485000
   507  Sc    c   -12.592233    3.636342   -0.003887    0.000000    3.000000
   508  Cl    c     5.153384    1.976936   20.854337    0.000000    1.485000
   509  Cl    c    -8.300722    7.423863   -1.493375    0.000000    1.485000
   510  Cl    c    -1.141530   -8.921923   20.855940    0.000000    1.485000
   511  Sc    c    -3.147057    1.817587   -6.458772    0.000000    3.000000
   512  Cl    c    11.719315   -5.450166    1.492276    0.000000    1.485000
   513  Cl    c    -1.140572  -16.505375    7.943066    0.000000    1.485000
   514  Cl    c    11.717534   -9.082672    7.943068    0.000000    1.485000
   515  Cl    c     8.573767  -10.899788    1.492898    0.000000    1.485000
   516  Cl    c    10.299988    0.000491   -1.500372    0.000000    1.485000
   517  Sc    c    -3.147872  -16.359894    6.451637    0.000000    3.000000
   518  Sc    c    12.595195   -7.270637    6.452871    0.000000    3.000000
   519  Cl    c    -4.285921  -14.688304   14.395408    0.000000    1.485000
   520  Cl    c    -1.143889   -9.246573   -4.956322    0.000000    1.485000
   521  Cl    c     2.006778  -14.690001   14.397499    0.000000    1.485000
   522  Cl    c    -8.297098   11.060874   11.411297    0.000000    1.485000
   523  Sc    c    -3.147115   -5.451615   -6.457124    0.000000    3.000000
   524  Sc    c   -12.590254   -7.269628   -0.003136    0.000000    3.000000
   525  Cl    s    -1.764551   -0.576390    5.449416    0.000000   -2.485000
   526  Cl    s    -3.716883   -3.657039    7.679049    0.000000   -2.485000
   527  Cl    s     1.879790   -0.427561    7.682720    0.000000   -2.485000
   528  Cl    s    -4.404996   -0.395467    7.466462    0.000000   -2.485000
   529  Cl    s    -0.601793    1.799504    7.469723    0.000000   -2.485000
   530  Cl    s    -2.524272   -3.742283    5.061478    0.000000   -2.485000
   531  Cl    s     1.355546   -1.503648    5.065628    0.000000   -2.485000
   532  Cl    s    -1.148336   -5.748956    7.640510    0.000000   -2.485000
   533  Cl    s     2.406567   -3.698379    7.642248    0.000000   -2.485000
   534  Cl    s     0.700492   -1.816046   11.604728    0.000000   -2.485000
   535  Cl    s    -1.924457    0.288844   11.607268    0.000000   -2.485000
   536  Cl    s    -1.931293   -3.922129   11.616778    0.000000   -2.485000
   537  Cl    s    -5.305267   -1.491483    4.915748    0.000000   -2.485000
   538  Cl    s     0.798760    2.029387    4.919438    0.000000   -2.485000
   539  Cl    s     1.219265    1.518027   11.612617    0.000000   -2.485000
   540  Cl    s     1.241946   -5.784862    5.144007    0.000000   -2.485000
   541  Cl    s     1.217463   -5.156065   11.615733    0.000000   -2.485000
   542  Cl    s    -5.572148   -1.818797   11.613096    0.000000   -2.485000
   543  Cl    s    -1.902234   -7.061842    5.152094    0.000000   -2.485000
   544  Cl    s     3.920061   -3.700444    5.153421    0.000000   -2.485000
   545  Cl    s     1.965436   -7.038670    7.677454    0.000000   -2.485000
   546  Cl    s    -5.616833    1.853954    5.102245    0.000000   -2.485000
   547  Cl    s    -1.942820    3.973403    5.103203    0.000000   -2.485000
   548  Cl    s    -4.353634   -7.018919    7.738806    0.000000   -2.485000
   549  Cl    s     5.109794   -1.556549    7.740341    0.000000   -2.485000
   550  Cl    s    -5.069454    1.517772   11.603993    0.000000   -2.485000
   551  Cl    s    -5.087478   -5.717539    5.244889    0.000000   -2.485000
   552  Cl    s     4.347860   -0.270602    5.246800    0.000000   -2.485000
   553  Cl    s    -0.727472   -1.817759   14.143560    0.000000   -2.485000
   554  Cl    s    -7.500223   -1.539099    7.584658    0.000000   -2.485000
   555  Cl    s     1.936882    3.908891    7.586289    0.000000   -2.485000
   556  Cl    s    -4.351757    3.904384    7.630536    0.000000   -2.485000
   557  Cl    s    -5.070044   -5.156271   11.611542    0.000000   -2.485000
   558  Cl    s    -2.428299    3.633218   11.615919    0.000000   -2.485000
   559  Cl    s    -1.222204   -2.103462    1.244217    0.000000   -2.485000
   560  Cl    s    -7.008359    1.841472    7.659966    0.000000   -2.485000
   561  Cl    s    -1.237149    5.172980    7.660741    0.000000   -2.485000
   562  Cl    s    -2.428413   -7.267221   11.624188    0.000000   -2.485000
   563  Cl    s     4.363775    0.283115   11.623915    0.000000   -2.485000
   564  Cl    s    -1.211237    1.537859   14.142489    0.000000   -2.485000
   565  Cl    s     4.362686   -3.915901   11.623839    0.000000   -2.485000
   566  Cl    s    -1.210247   -5.170640   14.149531    0.000000   -2.485000
   567  Cl    s     1.940891    0.274430   14.145302    0.000000   -2.485000
   568  Cl    s    -4.350239    0.273656   14.135818    0.000000   -2.485000
   569  Cl    s    -3.848130   -0.007546    1.248873    0.000000   -2.485000
   570  Cl    s     1.940759   -3.904644   14.142879    0.000000   -2.485000
   571  Cl    s    -4.353401   -3.908717   14.142854    0.000000   -2.485000
   572  Cl    s    -0.718483   -9.109969    7.679254    0.000000   -2.485000
   573  Cl    s     5.101289   -5.750330    7.680188    0.000000   -2.485000
   574  Cl    s     1.921559   -3.333695    1.257265    0.000000   -2.485000
   575  Cl    s    -7.508484   -5.715806    7.717675    0.000000   -2.485000
   576  Cl    s    -4.356807   -3.337826    1.244931    0.000000   -2.485000
   577  Cl    s     5.557907    1.827177    7.719063    0.000000   -2.485000
   578  Cl    s    -1.211615    2.095007    1.240090    0.000000   -2.485000
   579  Cl    s    -0.721446   -5.444663    1.248421    0.000000   -2.485000
   580  Cl    s    -8.370142   -0.245889    5.118186    0.000000   -2.485000
   581  Cl    s     1.251320    5.306888    5.118868    0.000000   -2.485000
   582  Cl    s     2.419379    0.002367    1.246058    0.000000   -2.485000
   583  Cl    s     0.749110   -9.153616    5.153941    0.000000   -2.485000
   584  Cl    s     4.406136   -7.043223    5.154679    0.000000   -2.485000
   585  Cl    s     3.860476    3.632363   11.618938    0.000000   -2.485000
   586  Cl    s    -8.221951    0.287663   11.615234    0.000000   -2.485000
   587  Cl    s    -8.738375   -3.646781    5.167418    0.000000   -2.485000
   588  Cl    s     4.380974    3.926638    5.168660    0.000000   -2.485000
   589  Cl    s    -5.098326    5.197737    5.129961    0.000000   -2.485000
   590  Cl    s    -8.223357   -3.921405   11.620321    0.000000   -2.485000
   591  Cl    s     3.863299   -7.266343   11.621657    0.000000   -2.485000
   592  Cl    s    -7.014187   -1.816534   14.145256    0.000000   -2.485000
   593  Cl    s     1.212503    5.733330   11.625459    0.000000   -2.485000
   594  Cl    s    -3.876746    3.633070   14.142967    0.000000   -2.485000
   595  Cl    s     1.924397    3.337880    1.251688    0.000000   -2.485000
   596  Cl    s    -3.876376   -7.269289   14.151326    0.000000   -2.485000
   597  Cl    s    -4.357565    3.334707    1.252522    0.000000   -2.485000
   598  Cl    s     1.211174   -9.366610   11.629836    0.000000   -2.485000
   599  Cl    s     2.412629    3.628045   14.144486    0.000000   -2.485000
   600  Cl    s     7.011665   -1.816148   11.623903    0.000000   -2.485000
   601  Cl    s    -5.563754   -9.072598    5.220545    0.000000   -2.485000
   602  Cl    s     7.492343   -1.535222    5.221480    0.000000   -2.485000
   603  Cl    s     5.071511   -2.099544    1.255715    0.000000   -2.485000
   604  Cl    s    -5.079804    5.736403   11.623597    0.000000   -2.485000
   605  Cl    s     2.413766   -7.261480   14.146657    0.000000   -2.485000
   606  Cl    s    -7.498974   -2.097852    1.248664    0.000000   -2.485000
   607  Cl    s     5.563617   -1.817246   14.149858    0.000000   -2.485000
   608  Cl    s   -10.163523   -3.640045    7.709579    0.000000   -2.485000
   609  Cl    s     5.087154    5.165090    7.710559    0.000000   -2.485000
   610  Cl    s    -8.222261   -6.985698    5.196106    0.000000   -2.485000
   611  Cl    s     7.013942    1.811049    5.197159    0.000000   -2.485000
   612  Cl    s    -7.507406    5.189621    7.683591    0.000000   -2.485000
   613  Cl    s    -3.886897    7.278882    7.684056    0.000000   -2.485000
   614  Cl    s    -1.931457   -3.356162   -1.290174    0.000000   -2.485000
   615  Cl    s    -8.255037    3.928851    5.162630    0.000000   -2.485000
   616  Cl    s    -2.420752    7.297041    5.163391    0.000000   -2.485000
   617  Cl    s    -2.423179    0.002310   -1.291950    0.000000   -2.485000
   618  Cl    s     5.084058    1.535277   14.153888    0.000000   -2.485000
   619  Cl    s     1.930743   -7.546017    1.256787    0.000000   -2.485000
   620  Cl    s    -1.929256    6.978381   11.619517    0.000000   -2.485000
   621  Cl    s    -4.356572   -7.543930    1.254784    0.000000   -2.485000
   622  Cl    s    -5.081063   -9.368891   11.630008    0.000000   -2.485000
   623  Cl    s    -7.495179    1.541049   14.141094    0.000000   -2.485000
   624  Cl    s     1.208877   -2.094815   -1.278530    0.000000   -2.485000
   625  Cl    s    -7.027727   -9.096607    7.740896    0.000000   -2.485000
   626  Cl    s     8.245006   -0.278989    7.741707    0.000000   -2.485000
   627  Cl    s     5.082792   -5.167518   14.154047    0.000000   -2.485000
   628  Cl    s   -10.659846   -0.290821    7.689646    0.000000   -2.485000
   629  Cl    s     2.434973    7.268792    7.690359    0.000000   -2.485000
   630  Cl    s    -7.497714   -5.174169   14.146886    0.000000   -2.485000
   631  Cl    s    -7.002533   -5.445031    1.259275    0.000000   -2.485000
   632  Cl    s    -1.209469    5.722153   14.145618    0.000000   -2.485000
   633  Cl    s    -0.721360    5.441409    1.247241    0.000000   -2.485000
   634  Cl    s    -1.216718   -8.790376    1.263331    0.000000   -2.485000
   635  Cl    s    -1.930490  -10.614803   11.626120    0.000000   -2.485000
   636  Cl    s     5.072903    2.099291    1.251172    0.000000   -2.485000
   637  Cl    s    -7.502587    2.095733    1.254575    0.000000   -2.485000
   638  Cl    s    -8.716786    3.634219   11.624957    0.000000   -2.485000
   639  Cl    s     7.508753    1.533674   11.633474    0.000000   -2.485000
   640  Cl    s    -1.942577  -11.200462    5.184703    0.000000   -2.485000
   641  Cl    s     7.523710   -5.735189    5.185149    0.000000   -2.485000
   642  Cl    s    -1.209690   -9.357494   14.151441    0.000000   -2.485000
   643  Cl    s    -5.089758   -2.099191   -1.287858    0.000000   -2.485000
   644  Cl    s     1.930094  -11.193038    7.704359    0.000000   -2.485000
   645  Cl    s     5.581573   -9.085812    7.704656    0.000000   -2.485000
   646  Cl    s    -4.358737  -11.182964    7.714718    0.000000   -2.485000
[...]
    838 z          1.263142      1.265674     0.002532    Cartesian    0.20
    839 x          8.228881      8.224524    -0.004358    Cartesian   -0.05
    839 y          6.986098      6.982343    -0.003754    Cartesian   -0.05
    839 z         14.168915     14.168805    -0.000110    Cartesian   -0.00
    840 x        -11.375700    -11.379833    -0.004133    Cartesian    0.04
    840 y          2.097985      2.095867    -0.002118    Cartesian   -0.10
    840 z         -1.263142     -1.264889    -0.001746    Cartesian    0.14
    841 x         -7.505211     -7.502796     0.002415    Cartesian   -0.03
    841 y         -2.097985     -2.095064     0.002922    Cartesian   -0.14
    841 z         20.621802     20.620186    -0.001616    Cartesian   -0.01
    842 x        -15.009970    -15.001086     0.008884    Cartesian   -0.06
    842 y         -3.633372     -3.631484     0.001888    Cartesian   -0.05
    842 z          5.189744      5.195206     0.005462    Cartesian    0.11
    843 x          7.505211      7.499168    -0.006043    Cartesian   -0.08
    843 y          9.365251      9.358534    -0.006718    Cartesian   -0.07
    843 z          5.189744      5.195164     0.005419    Cartesian    0.10
    844 x        -13.311397    -13.311603    -0.000206    Cartesian    0.00
    844 y         -9.084344     -9.089408    -0.005064    Cartesian    0.06
    844 z          7.716029      7.719201     0.003172    Cartesian    0.04
    845 x         11.375700     11.380370     0.004670    Cartesian    0.04
    845 y          5.169281      5.166974    -0.002307    Cartesian   -0.04
    845 z          7.716029      7.719347     0.003318    Cartesian    0.04
    846 x        -10.652030    -10.645484     0.006546    Cartesian   -0.06
    846 y          6.986098      6.984493    -0.001604    Cartesian   -0.02
    846 z         14.168915     14.160949    -0.007966    Cartesian   -0.06
    847 x        -13.798849    -13.794078     0.004770    Cartesian   -0.03
    847 y         -2.097985     -2.098541    -0.000556    Cartesian    0.03
    847 z          1.263142      1.263110    -0.000032    Cartesian   -0.00
    848 x          7.017760      7.015988    -0.001772    Cartesian   -0.03
    848 y        -12.717454    -12.715942     0.001512    Cartesian   -0.01
    848 z         11.642631     11.639354    -0.003277    Cartesian   -0.03
    849 x         -7.017760     -7.008515     0.009245    Cartesian   -0.13
    849 y         -1.817078     -1.816754     0.000324    Cartesian   -0.02
    849 z         -5.189744     -5.182179     0.007566    Cartesian   -0.15
    850 x        -13.798849    -13.793489     0.005360    Cartesian   -0.04
    850 y          5.169281      5.172809     0.003528    Cartesian    0.07
    850 z          7.716029      7.713314    -0.002715    Cartesian   -0.04
    851 x         -0.724123     -0.729719    -0.005596    Cartesian    0.77
    851 y         12.717454     12.714804    -0.002651    Cartesian   -0.02
    851 z          7.716029      7.713640    -0.002389    Cartesian   -0.03
    852 x         -3.870942     -3.865981     0.004961    Cartesian   -0.13
    852 y          3.633372      3.631390    -0.001981    Cartesian   -0.05
    852 z         -5.189744     -5.185564     0.004180    Cartesian   -0.08
    853 x        -13.311397    -13.303478     0.007919    Cartesian   -0.06
    853 y         -5.450711     -5.451359    -0.000648    Cartesian    0.01
    853 z          1.263142      1.267119     0.003977    Cartesian    0.31
    854 x         11.375700     11.376255     0.000555    Cartesian    0.00
    854 y          1.535648      1.535970     0.000323    Cartesian    0.02
    854 z         14.168915     14.167329    -0.001587    Cartesian   -0.01
    855 x          1.935244      1.936806     0.001562    Cartesian    0.08
    855 y         -7.548435     -7.544749     0.003685    Cartesian   -0.05
    855 z         20.621802     20.619940    -0.001862    Cartesian   -0.01
    856 x         -8.229334     -8.230538    -0.001204    Cartesian    0.01
    856 y         10.619469     10.621767     0.002298    Cartesian    0.02
    856 z          5.189744      5.184147    -0.005598    Cartesian   -0.11
    857 x         -4.358393     -4.356130     0.002262    Cartesian   -0.05
    857 y         -7.548435     -7.544487     0.003948    Cartesian   -0.05
    857 z         20.621802     20.620577    -0.001225    Cartesian   -0.01
    858 x         -5.082516     -5.082759    -0.000243    Cartesian    0.00
    858 y          8.802653      8.799822    -0.002830    Cartesian   -0.03
    858 z         -1.263142     -1.265771    -0.002629    Cartesian    0.21
    859 x          5.569514      5.564080    -0.005434    Cartesian   -0.10
    859 y        -12.717977    -12.713451     0.004526    Cartesian   -0.04
    859 z         14.168915     14.163446    -0.005469    Cartesian   -0.04
    860 x         -3.870942     -3.867959     0.002983    Cartesian   -0.08
    860 y         10.900638     10.895717    -0.004921    Cartesian   -0.05
    860 z          1.263142      1.265093     0.001951    Cartesian    0.15
    861 x          4.358393      4.355928    -0.002465    Cartesian   -0.06
    861 y         11.182068     11.176924    -0.005144    Cartesian   -0.05
    861 z         11.642631     11.643319     0.000688    Cartesian    0.01
    862 x          8.229334      8.224951    -0.004384    Cartesian   -0.05
    862 y        -10.619469    -10.615272     0.004198    Cartesian   -0.04
    862 z         14.168915     14.169773     0.000858    Cartesian    0.01
    863 x        -11.376153    -11.371738     0.004415    Cartesian   -0.04
    863 y         -2.098247     -2.101626    -0.003380    Cartesian    0.16
    863 z         18.095518     18.091637    -0.003881    Cartesian   -0.02
    864 x        -13.798849    -13.789855     0.008994    Cartesian   -0.07
    864 y          1.535648      1.537668     0.002020    Cartesian    0.13
    864 z         14.168915     14.159763    -0.009152    Cartesian   -0.06
    865 x         11.863151     11.855624    -0.007528    Cartesian   -0.06
    865 y         -1.817078     -1.816894     0.000185    Cartesian   -0.01
    865 z         14.168915     14.163593    -0.005322    Cartesian   -0.04
    866 x         11.376153     11.375749    -0.000404    Cartesian   -0.00
    866 y         -5.169020     -5.168231     0.000788    Cartesian   -0.02
    866 z         14.168915     14.167749    -0.001167    Cartesian   -0.01
    867 x         -3.870942     -3.866912     0.004030    Cartesian   -0.10
    867 y         -7.267528     -7.265314     0.002214    Cartesian   -0.03
    867 z         -5.189744     -5.186212     0.003532    Cartesian   -0.07
    868 x        -10.651577    -10.646222     0.005355    Cartesian   -0.05
    868 y        -10.619469    -10.618271     0.001198    Cartesian   -0.01
    868 z         14.168915     14.162652    -0.006263    Cartesian   -0.04
    869 x          7.505211      7.501587    -0.003625    Cartesian   -0.05
    869 y         -8.802914     -8.803648    -0.000734    Cartesian    0.01
    869 z         -1.263142     -1.261201     0.001941    Cartesian   -0.15
    870 x         -7.017760     -7.018733    -0.000973    Cartesian    0.01
    870 y         -5.450711     -5.450018     0.000693    Cartesian   -0.01
    870 z         20.621802     20.621571    -0.000231    Cartesian   -0.00
    871 x        -10.164579    -10.156951     0.007627    Cartesian   -0.08
    871 y        -10.901161    -10.898609     0.002552    Cartesian   -0.02
    871 z          1.263142      1.268370     0.005228    Cartesian    0.41
    872 x        -13.798396    -13.790139     0.008256    Cartesian   -0.06
    872 y         -5.169020     -5.170325    -0.001306    Cartesian    0.03
    872 z         14.168915     14.160504    -0.008412    Cartesian   -0.06
    873 x          2.422696      2.424098     0.001402    Cartesian    0.06
    873 y          3.633372      3.632343    -0.001028    Cartesian   -0.03
    873 z         -5.189744     -5.185263     0.004481    Cartesian   -0.09
    874 x         -0.724123     -0.727235    -0.003112    Cartesian    0.43
    874 y          5.450188      5.449239    -0.000949    Cartesian   -0.02
    874 z         20.621802     20.620361    -0.001440    Cartesian   -0.01
    875 x          5.082063      5.080153    -0.001909    Cartesian   -0.04
    875 y        -12.998884    -12.995468     0.003416    Cartesian   -0.03
    875 z          1.263142      1.263472     0.000330    Cartesian    0.03
    876 x        -11.863151    -11.857759     0.005392    Cartesian   -0.05
    876 y         -5.450188     -5.450331    -0.000143    Cartesian    0.00
    876 z         -1.263142     -1.260060     0.003082    Cartesian   -0.24
    877 x          1.935697      1.936135     0.000438    Cartesian    0.02
    877 y         11.182329     11.175242    -0.007088    Cartesian   -0.06
    877 z         14.168915     14.163929    -0.004987    Cartesian   -0.04
    878 x          1.935697      1.931842    -0.003856    Cartesian   -0.20
    878 y        -14.253102    -14.245875     0.007227    Cartesian   -0.05
    878 z          1.263142      1.267982     0.004840    Cartesian    0.38
    879 x         -7.505211     -7.501855     0.003357    Cartesian   -0.04
    879 y        -12.998884    -12.991992     0.006892    Cartesian   -0.05
    879 z          1.263142      1.261680    -0.001462    Cartesian   -0.12
    880 x         -4.357940     -4.353725     0.004215    Cartesian   -0.10
    880 y         11.182329     11.172626    -0.009704    Cartesian   -0.09
    880 z         14.168915     14.162426    -0.006489    Cartesian   -0.05
    881 x         -1.211121     -1.209941     0.001180    Cartesian   -0.10
    881 y         -8.802653     -8.802890    -0.000238    Cartesian    0.00
    881 z         20.621802     20.621811     0.000009    Cartesian    0.00
    882 x          2.422696      2.421684    -0.001011    Cartesian   -0.04
    882 y         10.900638     10.895565    -0.005072    Cartesian   -0.05
    882 z          1.263142      1.263351     0.000209    Cartesian    0.02
    883 x         -4.357940     -4.360738    -0.002798    Cartesian    0.06
    883 y        -14.253102    -14.244647     0.008456    Cartesian   -0.06
    883 z          1.263142      1.268846     0.005704    Cartesian    0.45
    884 x        -14.522519    -14.524083    -0.001564    Cartesian    0.01
    884 y         -6.986098     -6.985873     0.000225    Cartesian   -0.00
    884 z          5.189744      5.187562    -0.002183    Cartesian   -0.04
    885 x         10.164579     10.165084     0.000506    Cartesian    0.00
    885 y          7.267528      7.268877     0.001350    Cartesian    0.02
    885 z          5.189744      5.187730    -0.002015    Cartesian   -0.04
    886 x         10.164579     10.162423    -0.002156    Cartesian   -0.02
    886 y          0.000261      0.000142    -0.000120    Cartesian  -45.71
    886 z         -1.263142     -1.265348    -0.002206    Cartesian    0.17
    887 x          5.082516      5.083625     0.001110    Cartesian    0.02
    887 y          2.098247      2.095131    -0.003116    Cartesian   -0.15
    887 z         20.621802     20.620576    -0.001226    Cartesian   -0.01
    888 x         11.376153     11.370502    -0.005651    Cartesian   -0.05
    888 y          2.098247      2.099601     0.001355    Cartesian    0.06
    888 z          1.263142      1.265794     0.002651    Cartesian    0.21
    889 x          3.870942      3.865722    -0.005220    Cartesian   -0.13
    889 y        -10.900638    -10.898572     0.002066    Cartesian   -0.02
    889 z         18.095518     18.091578    -0.003940    Cartesian   -0.02
    890 x          2.422696      2.423888     0.001192    Cartesian    0.05
    890 y         -7.267528     -7.265922     0.001606    Cartesian   -0.02
    890 z         -5.189744     -5.185905     0.003839    Cartesian   -0.07
    891 x         -7.504758     -7.501882     0.002876    Cartesian   -0.04
    891 y          2.098247      2.094698    -0.003548    Cartesian   -0.17
    891 z         20.621802     20.620149    -0.001653    Cartesian   -0.01
    892 x          8.229334      8.225154    -0.004180    Cartesian   -0.05
    892 y          7.548696      7.546194    -0.002502    Cartesian   -0.03
    892 z          1.263142      1.263792     0.000650    Cartesian    0.05
    893 x        -14.522519    -14.525898    -0.003380    Cartesian    0.02
    893 y          3.914802      3.908038    -0.006764    Cartesian   -0.17
    893 z          5.189744      5.191193     0.001448    Cartesian    0.03
    894 x          5.569514      5.569014    -0.000501    Cartesian   -0.01
    894 y         -1.817078     -1.816614     0.000464    Cartesian   -0.03
    894 z         -5.189744     -5.186376     0.003368    Cartesian   -0.06
    895 x          0.724123      0.731787     0.007664    Cartesian    1.06
    895 y         12.717977     12.717334    -0.000643    Cartesian   -0.01
    895 z          5.189744      5.191557     0.001813    Cartesian    0.03
    896 x          1.211121      1.212380     0.001258    Cartesian    0.10
    896 y         12.436286     12.432447    -0.003839    Cartesian   -0.03
    896 z         11.642631     11.638517    -0.004114    Cartesian   -0.04
    897 x        -13.798396    -13.793248     0.005148    Cartesian   -0.04
    897 y          2.098247      2.096315    -0.001931    Cartesian   -0.09
    897 z          1.263142      1.262077    -0.001065    Cartesian   -0.08
    898 x         -8.228881     -8.229590    -0.000709    Cartesian    0.01
    898 y          7.548435      7.541272    -0.007163    Cartesian   -0.09
    898 z         -1.263142     -1.259805     0.003337    Cartesian   -0.26
    899 x        -10.651577    -10.646582     0.004995    Cartesian   -0.05
    899 y          7.548696      7.542688    -0.006009    Cartesian   -0.08
    899 z          1.263142      1.261875    -0.001267    Cartesian   -0.10
    900 x          1.211121      1.212430     0.001309    Cartesian    0.11
    900 y          8.802653      8.796436    -0.006216    Cartesian   -0.07
    900 z         18.095518     18.091380    -0.004138    Cartesian   -0.02
    901 x          4.357940      4.355278    -0.002662    Cartesian   -0.06
    901 y        -14.815962    -14.810240     0.005723    Cartesian   -0.04
    901 z         11.642631     11.643830     0.001199    Cartesian    0.01
    902 x          4.358393      4.357301    -0.001092    Cartesian   -0.03
    902 y          7.548435      7.546871    -0.001564    Cartesian   -0.02
    902 z         18.095518     18.093640    -0.001878    Cartesian   -0.01
    903 x          1.211121      1.208455    -0.002666    Cartesian   -0.22
    903 y        -12.999146    -12.992576     0.006570    Cartesian   -0.05
    903 z         -1.263142     -1.258672     0.004470    Cartesian   -0.35
    904 x          5.082063      5.076712    -0.005351    Cartesian   -0.11
    904 y          1.535648      1.529203    -0.006445    Cartesian   -0.42
    904 z         -5.189744     -5.182583     0.007161    Cartesian   -0.14
    905 x          7.017760      7.011221    -0.006539    Cartesian   -0.09
    905 y          5.450711      5.449030    -0.001681    Cartesian   -0.03
    905 z         18.095518     18.091204    -0.004313    Cartesian   -0.02
    906 x         -7.505211     -7.505619    -0.000408    Cartesian    0.01
    906 y          1.535648      1.531317    -0.004331    Cartesian   -0.28
    906 z         -5.189744     -5.184303     0.005441    Cartesian   -0.10
    907 x        -11.375700    -11.371261     0.004439    Cartesian   -0.04
    907 y          2.097985      2.100418     0.002433    Cartesian    0.12
    907 z         18.095518     18.092080    -0.003438    Cartesian   -0.02
    908 x          5.082516      5.076968    -0.005548    Cartesian   -0.11
    908 y         -5.169020     -5.161195     0.007825    Cartesian   -0.15
    908 z         -5.189744     -5.182397     0.007347    Cartesian   -0.14
    909 x          1.935244      1.936763     0.001519    Cartesian    0.08
    909 y        -14.815701    -14.807803     0.007898    Cartesian   -0.05
    909 z         14.168915     14.164667    -0.004248    Cartesian   -0.03
    910 x         -4.358393     -4.355024     0.003368    Cartesian   -0.08
    910 y        -14.815701    -14.806757     0.008944    Cartesian   -0.06
    910 z         14.168915     14.162998    -0.005918    Cartesian   -0.04
    911 x         -7.504758     -7.505549    -0.000790    Cartesian    0.01
    911 y         -5.169020     -5.163527     0.005492    Cartesian   -0.11
    911 z         -5.189744     -5.183826     0.005919    Cartesian   -0.11
    912 x         -1.211121     -1.211637    -0.000515    Cartesian    0.04
    912 y          5.731880      5.731036    -0.000844    Cartesian   -0.01
    912 z         -5.189744     -5.185892     0.003853    Cartesian   -0.07
    913 x         -1.211574     -1.210045     0.001529    Cartesian   -0.13
    913 y        -16.632518    -16.623300     0.009218    Cartesian   -0.06
    913 z          7.716029      7.711176    -0.004852    Cartesian   -0.06
    914 x         11.863151     11.854379    -0.008772    Cartesian   -0.07
    914 y         -9.084344     -9.081073     0.003271    Cartesian   -0.04
    914 z          7.716029      7.711177    -0.004852    Cartesian   -0.06
    915 x          8.716333      8.709659    -0.006673    Cartesian   -0.08
    915 y        -10.901161    -10.897712     0.003449    Cartesian   -0.03
    915 z          1.263142      1.261905    -0.001237    Cartesian   -0.10
    916 x         -8.228881     -8.227814     0.001068    Cartesian   -0.01
    916 y         11.182068     11.177871    -0.004197    Cartesian   -0.04
    916 z         11.642631     11.642776     0.000145    Cartesian    0.00
    917 x         11.863151     11.854988    -0.008164    Cartesian   -0.07
    917 y         -5.450711     -5.449053     0.001658    Cartesian   -0.03
    917 z          1.263142      1.261516    -0.001627    Cartesian   -0.13
    918 x         -1.211574     -1.211881    -0.000307    Cartesian    0.03
    918 y         -9.365251     -9.363467     0.001784    Cartesian   -0.02
    918 z         -5.189744     -5.186795     0.002949    Cartesian   -0.06
--------------------------------------------------------------------------------


  Time to end of optimisation  =      255.7949 seconds


  Peak dynamic memory used =     125.64 MB 


  Timing analysis for GULP :

--------------------------------------------------------------------------------
  Task / Subroutine                                          Time (Seconds)
--------------------------------------------------------------------------------
  Calculation of reciprocal space energy and derivatives          0.0018
  Calculation of reciprocal space energy using symmetry           0.0257
  Calculation of real space energy and derivatives                0.0085
  Calculation of real space energy using symmetry                 0.3590
  Calculation for region 1 energy and derivatives (2-b)          90.1919
  Calculation for region 2a energy                               91.9661
  Calculation for region 2b energy                                0.0182
  Calculation and manipulation of Hessian matrix                  0.0403
  Calculation of matrix inversion                                71.9906
  Symmetry generation of equivalent positions                     0.0009
  Global summation overhead                                       0.0001
--------------------------------------------------------------------------------
  Total CPU time                                                255.7949
--------------------------------------------------------------------------------


  Dump file written as ScCl3.grs



  **** GULP has completed with   2 warnings - beware! ****

  Job Finished at 11:37.12 18th August     2021                               

