********************************************************************************
*                       GENERAL UTILITY LATTICE PROGRAM                        *
*                                 Julian Gale                                  *
*                       Curtin Institute for Computation                       *
*                    School of Molecular and Life Sciences                     *
*                    Curtin University, Western Australia                      *
********************************************************************************
* Version = 5.2.0 * Last modified =  10th September 2020                       *
********************************************************************************
*  optimise     - perform optimisation run                                     *
*  conp         - constant pressure calculation                                *
*  property     - calculate properties for final geometry                      *
*  defect       - perform defect calculation after bulk run                    *
*  compare      - compare initial and final structures                         *
********************************************************************************

  Job Started  at 11:32.54 18th August     2021                               

  Number of CPUs =     1


  Total number of configurations input =      1

********************************************************************************
*  Input for Configuration =   1                                               *
********************************************************************************

  Formula = Sc2Cl6                                                      

  Number of irreducible atoms/shells =       3


  Total number atoms/shells =      14

  Dimensionality = 3               :  Bulk   


  Symmetry :

  Crystal family                   :  Hexagonal   
  Crystal class  (Groth - 1921)    :  Trigonal Rhombohedral                

  Space group (centrosymmetric)    :  R -3            

  Patterson group                  :  R -3     

  Cartesian lattice vectors (Angstroms) :

        3.246588    1.874418    6.441540
       -3.246588    1.874418    6.441540
        0.000000   -3.748837    6.441540

  Cell parameters (Angstroms/Degrees):

  a =       7.4530    alpha =  51.6480
  b =       7.4530    beta  =  51.6480
  c =       7.4530    gamma =  51.6480

  Initial cell volume =         235.198534 Angs**3

  Temperature of configuration =   0.00     K 

  Pressure of configuration =         0.000 GPa 

  Fractional coordinates of asymmetric unit :

--------------------------------------------------------------------------------
   No.  Atomic       x           y          z         Charge      Occupancy
        Label      (Frac)      (Frac)     (Frac)        (e)         (Frac)  
--------------------------------------------------------------------------------
      1 Sc    c    0.333900    0.333900    0.333900 *   3.00000    1.000000    
      2 Cl    c    0.073700 *  0.443900 *  0.705300 *   1.48500    1.000000    
      3 Cl    s    0.073700 *  0.443900 *  0.705300 *  -2.48500    1.000000    
--------------------------------------------------------------------------------


  Constraints : 

--------------------------------------------------------------------------------
  Constraint no.      Unconstrained     Constrained    Coefficient    Offset
                         Variable         Variable
--------------------------------------------------------------------------------
           1              Strain 1        Strain 2       1.00000      0.0000
--------------------------------------------------------------------------------


********************************************************************************
*  General input information                                                   *
********************************************************************************

  Species output for all configurations : 

--------------------------------------------------------------------------------
  Species    Type    Atomic    Atomic    Charge       Radii (Angs)     Library
                     Number     Mass       (e)     Cova   Ionic  VDW   Symbol
--------------------------------------------------------------------------------
    Sc       Core       21      44.96   3.000000   1.440  0.000  2.150          
    Cl       Core       17      35.45   1.485000   0.990  0.000  1.650          
    Cl       Shell      17       0.00  -2.485000   0.990  0.000  1.650          
--------------------------------------------------------------------------------


  Lattice summation method               =    Ewald          (3-D)
                                         =    Parry          (2-D)
                                         =    Saunders et al (1-D)
  Accuracy factor for lattice sums       =   12.000


  Analytic derivatives to be used

  Time limit = Infinity

  Maximum range for interatomic potentials =    100000.000000 Angstroms

  General interatomic potentials :

--------------------------------------------------------------------------------
Atom  Types   Potential      Parameter       Value         Units   Cutoffs(Ang)
  1     2                                                            Min /  Max 
--------------------------------------------------------------------------------
Cl   c Cl   s Spring (c-s)  Spring k 2       29.380000    eV*Ang^-2 0.000  0.800
                            Spring k 4       0.0000000    eV*Ang^-4 
--------------------------------------------------------------------------------
Sc   c Cl   s Buckingham    Buckingham A     12131.350    eV        0.000 12.000
                            Buckingham rho  0.25070000    Ang       
                            Buckingham C     0.0000000    eV*Ang^6  
--------------------------------------------------------------------------------
Cl   s Cl   s Buckingham    Buckingham A     1227.2000    eV        0.000 12.000
                            Buckingham rho  0.32100000    Ang       
                            Buckingham C     14.530000    eV*Ang^6  
--------------------------------------------------------------------------------

********************************************************************************
*  Output for configuration   1                                                *
********************************************************************************


  Components of energy : 

--------------------------------------------------------------------------------
  Interatomic potentials     =           6.77737779 eV    
  Monopole - monopole (real) =         -30.86300284 eV    
  Monopole - monopole (recip)=         -65.52201623 eV    
  Monopole - monopole (total)=         -96.38501907 eV    
--------------------------------------------------------------------------------
  Total lattice energy : 
    Primitive unit cell      =         -89.60764128 eV    
    Non-primitive unit cell  =        -268.82292384 eV    
--------------------------------------------------------------------------------
  Total lattice energy (in kJmol-1): 
    Primitive unit cell      =           -8645.7676 kJ/(mole unit cells)
    Non-primitive unit cell  =          -25937.3028 kJ/(mole unit cells)
--------------------------------------------------------------------------------


  Number of variables =        9

  Maximum number of calculations  =          1000
  Maximum Hessian update interval =            10
  Maximum step size               =   1.000000000
  Maximum parameter tolerance     =   0.000010000
  Maximum function  tolerance     =   0.000010000
  Maximum gradient  tolerance     =   0.001000000
  Maximum gradient  component     =   0.010000000

  Symmetry constrained optimisation

  Symmetry used for second derivatives

  Cell parameters to be optimised using strains

  Newton-Raphson optimiser to be used

  BFGS hessian update to be used

  Lower half triangular hessian to be used

  Start of bulk optimisation :

  Cycle:      0 Energy:       -89.607641  Gnorm:    194.660938  CPU:    0.009
  ** Hessian calculated **
  Cycle:      1 Energy:       -99.336245  Gnorm:     16.922396  CPU:    0.016
  Cycle:      2 Energy:       -99.561570  Gnorm:      7.561347  CPU:    0.025
  Cycle:      3 Energy:       -99.729576  Gnorm:      4.412393  CPU:    0.030
  Cycle:      4 Energy:       -99.829400  Gnorm:      2.218678  CPU:    0.035
  Cycle:      5 Energy:       -99.844572  Gnorm:      0.723795  CPU:    0.040
  Cycle:      6 Energy:       -99.846381  Gnorm:      0.448826  CPU:    0.045
  Cycle:      7 Energy:       -99.846853  Gnorm:      0.344817  CPU:    0.049
  Cycle:      8 Energy:       -99.849123  Gnorm:      0.319075  CPU:    0.056
  Cycle:      9 Energy:       -99.851112  Gnorm:      0.253552  CPU:    0.063
  Cycle:     10 Energy:       -99.852597  Gnorm:      0.161985  CPU:    0.070
  ** Hessian calculated **
  Cycle:     11 Energy:       -99.854095  Gnorm:      0.114649  CPU:    0.080
  Cycle:     12 Energy:       -99.855517  Gnorm:      0.062367  CPU:    0.087
  Cycle:     13 Energy:       -99.856271  Gnorm:      0.091299  CPU:    0.094
  Cycle:     14 Energy:       -99.856398  Gnorm:      0.057833  CPU:    0.101
  Cycle:     15 Energy:       -99.709969  Gnorm:      9.382415  CPU:    0.122
  ** Hessian calculated **
  Cycle:     16 Energy:       -99.834592  Gnorm:      3.493936  CPU:    0.132
  Cycle:     17 Energy:       -99.855984  Gnorm:      0.183406  CPU:    0.137
  Cycle:     18 Energy:       -99.856377  Gnorm:      0.024886  CPU:    0.143
  ** Hessian calculated **
  Cycle:     19 Energy:       -99.856378  Gnorm:      0.010051  CPU:    0.148
  Cycle:     20 Energy:       -99.856379  Gnorm:      0.013393  CPU:    0.153
  Cycle:     21 Energy:       -99.856379  Gnorm:      0.009613  CPU:    0.157
  Cycle:     22 Energy:       -99.856380  Gnorm:      0.011718  CPU:    0.161
  Cycle:     23 Energy:       -99.856381  Gnorm:      0.013744  CPU:    0.165
  Cycle:     24 Energy:       -99.856381  Gnorm:      0.012669  CPU:    0.170
  Cycle:     25 Energy:       -99.856382  Gnorm:      0.013916  CPU:    0.174
  Cycle:     26 Energy:       -99.856383  Gnorm:      0.012516  CPU:    0.179
  Cycle:     27 Energy:       -99.856383  Gnorm:      0.006850  CPU:    0.183
  Cycle:     28 Energy:       -99.856383  Gnorm:      0.005130  CPU:    0.188
  ** Hessian calculated **
  Cycle:     29 Energy:       -99.856383  Gnorm:      0.005098  CPU:    0.195
  Cycle:     30 Energy:       -99.856383  Gnorm:      0.005050  CPU:    0.200
  Cycle:     31 Energy:       -99.856384  Gnorm:      0.004978  CPU:    0.205
  Cycle:     32 Energy:       -99.856384  Gnorm:      0.004870  CPU:    0.210
  Cycle:     33 Energy:       -99.856385  Gnorm:      0.004708  CPU:    0.215
  Cycle:     34 Energy:       -99.856385  Gnorm:      0.004465  CPU:    0.220
  Cycle:     35 Energy:       -99.856387  Gnorm:      0.004100  CPU:    0.225
  Cycle:     36 Energy:       -99.856389  Gnorm:      0.003183  CPU:    0.232
  Cycle:     37 Energy:       -99.856390  Gnorm:      0.002732  CPU:    0.238
  Cycle:     38 Energy:       -99.856390  Gnorm:      0.002622  CPU:    0.244
  ** Hessian calculated **
  Cycle:     39 Energy:       -99.856390  Gnorm:      0.002617  CPU:    0.256
  Cycle:     40 Energy:       -99.856390  Gnorm:      0.002611  CPU:    0.265
  Cycle:     41 Energy:       -99.856390  Gnorm:      0.002596  CPU:    0.274
  Cycle:     42 Energy:       -99.856390  Gnorm:      0.002573  CPU:    0.283
  Cycle:     43 Energy:       -99.856391  Gnorm:      0.002556  CPU:    0.293
  Cycle:     44 Energy:       -99.856391  Gnorm:      0.002551  CPU:    0.298
  Cycle:     45 Energy:       -99.856376  Gnorm:      0.010367  CPU:    0.313
  ** Hessian calculated **
  Cycle:     46 Energy:       -99.856376  Gnorm:      0.003162  CPU:    0.320
  Cycle:     47 Energy:       -99.856376  Gnorm:      0.004154  CPU:    0.325
  Cycle:     48 Energy:       -99.856376  Gnorm:      0.004258  CPU:    0.330
  Cycle:     49 Energy:       -99.856376  Gnorm:      0.003063  CPU:    0.335
  Cycle:     50 Energy:       -99.856376  Gnorm:      0.003213  CPU:    0.340
  Cycle:     51 Energy:       -99.856376  Gnorm:      0.002448  CPU:    0.348
  Cycle:     52 Energy:       -99.856376  Gnorm:      0.002432  CPU:    0.357
  Cycle:     53 Energy:       -99.856376  Gnorm:      0.002202  CPU:    0.366
  Cycle:     54 Energy:       -99.856376  Gnorm:      0.003030  CPU:    0.375
  Cycle:     55 Energy:       -99.856377  Gnorm:      0.003988  CPU:    0.384
  ** Hessian calculated **
  Cycle:     56 Energy:       -99.856377  Gnorm:      0.003870  CPU:    0.396
  Cycle:     57 Energy:       -99.856377  Gnorm:      0.003694  CPU:    0.405
  Cycle:     58 Energy:       -99.856377  Gnorm:      0.003429  CPU:    0.414
  Cycle:     59 Energy:       -99.856377  Gnorm:      0.003032  CPU:    0.423
  Cycle:     60 Energy:       -99.856378  Gnorm:      0.002436  CPU:    0.431
  Cycle:     61 Energy:       -99.856378  Gnorm:      0.001545  CPU:    0.440


  **** Optimisation achieved ****


  Final energy =     -99.85637867 eV
  Final Gnorm  =       0.00022970

  Components of energy : 

--------------------------------------------------------------------------------
  Interatomic potentials     =          20.55356182 eV    
  Monopole - monopole (real) =          80.99460097 eV    
  Monopole - monopole (recip)=        -201.40454146 eV    
  Monopole - monopole (total)=        -120.40994049 eV    
--------------------------------------------------------------------------------
  Total lattice energy : 
    Primitive unit cell      =         -99.85637867 eV    
    Non-primitive unit cell  =        -299.56913600 eV    
--------------------------------------------------------------------------------
  Total lattice energy (in kJmol-1): 
    Primitive unit cell      =           -9634.6141 kJ/(mole unit cells)
    Non-primitive unit cell  =          -28903.8423 kJ/(mole unit cells)
--------------------------------------------------------------------------------

  Final asymmetric unit coordinates :

--------------------------------------------------------------------------------
   No.  Atomic        x           y           z         Radius
        Label       (Frac)      (Frac)      (Frac)       (Angs) 
--------------------------------------------------------------------------------
     1  Sc    c     0.333302    0.333302    0.333302    0.000000
     2  Cl    c     0.077345    0.440528    0.713912    0.000000
     3  Cl    s     0.065297    0.450169    0.680282    0.000000
--------------------------------------------------------------------------------

  Final Cartesian lattice vectors (Angstroms) :

        3.146819    1.816817    6.452887
       -3.146819    1.816817    6.452887
        0.000000   -3.633633    6.452887


  Final cell parameters and derivatives :

--------------------------------------------------------------------------------
       a            7.405608 Angstrom     dE/de1(xx)    -0.000123 eV/strain
       b            7.405608 Angstrom     dE/de2(yy)     0.000000 eV/strain
       c            7.405608 Angstrom     dE/de3(zz)    -0.000049 eV/strain
       alpha       50.291669 Degrees      dE/de4(yz)     0.000000 eV/strain
       beta        50.291669 Degrees      dE/de5(xz)     0.000000 eV/strain
       gamma       50.291669 Degrees      dE/de6(xy)     0.000000 eV/strain
--------------------------------------------------------------------------------

  Primitive cell volume =           221.354351 Angs**3

  Density of cell =      2.270208 g/cm**3

  Non-primitive lattice parameters :

  a    =     6.293637  b   =     6.293637  c    =    19.358660
  alpha=    90.000000  beta=    90.000000  gamma=   120.000000

  Non-primitive cell volume =           664.063053 Angs**3


  Final internal derivatives :

--------------------------------------------------------------------------------
   No.  Atomic          a             b             c           Radius
        Label          (eV)          (eV)          (eV)        (eV/Angs)
--------------------------------------------------------------------------------
      1 Sc    c       0.000000      0.000000      0.000333      0.000000
      2 Cl    c      -0.000512      0.000026      0.001871      0.000000
      3 Cl    s      -0.000302      0.000461     -0.000278      0.000000
--------------------------------------------------------------------------------
  Maximum abs         0.000512      0.000461      0.001871      0.000000
--------------------------------------------------------------------------------

  Comparison of initial and final structures : 

--------------------------------------------------------------------------------
  Parameter   Initial value   Final value   Difference    Units      Percent
--------------------------------------------------------------------------------
    Volume       705.595603    664.063053   -41.532550    Angs**3     -5.89
    a              6.493176      6.293637    -0.199538    Angstroms   -3.07
    b              6.493176      6.293637    -0.199538    Angstroms   -3.07
    c             19.324619     19.358660     0.034041    Angstroms    0.18
    alpha         90.000000     90.000000     0.000000    Degrees      0.00
    beta          90.000000     90.000000     0.000000    Degrees      0.00
    gamma        120.000000    120.000000     0.000000    Degrees      0.00
      1 x          0.000000      0.000000     0.000000    Fractional   0.00
      1 y          0.000000      0.000000     0.000000    Fractional   0.00
      1 z          0.333900      0.333302     0.000598    Fractional   0.18
      2 x          0.666067      0.666750     0.000683    Fractional   0.10
      2 y          0.702333      0.696683     0.005650    Fractional   0.80
      2 z          0.407633      0.410595     0.002962    Fractional   0.73
      3 x          0.666067      0.666715     0.000648    Fractional   0.10
      3 y          0.702333      0.718301     0.015968    Fractional   2.27
      3 z          0.407633      0.398583     0.009051    Fractional   2.22
--------------------------------------------------------------------------------


  Born effective charge tensors : 

-------------------------------------------------------------------------------
  Atom             x           y             z
-------------------------------------------------------------------------------
    1 Sc    x       1.8547     -0.0008      0.0000
            y       0.0008      1.8547      0.0000
            z       0.0000      0.0000      1.3341
-------------------------------------------------------------------------------
    2 Cl    x      -0.6622     -0.0739     -0.0054
            y      -0.0744     -0.5743      0.0077
            z      -0.0118      0.0242     -0.4447
-------------------------------------------------------------------------------




  Elastic Constant Matrix: (Units=GPa)

-------------------------------------------------------------------------------
  Indices      1         2         3         4         5         6    
-------------------------------------------------------------------------------
       1     59.0042   36.7253    0.0676   -0.0391    0.0164    0.0000
       2     36.7253   59.0042    0.0676    0.0391   -0.0164   -0.0000
       3      0.0676    0.0676    1.3662   -0.0000   -0.0000    0.0000
       4     -0.0391    0.0391   -0.0000    0.1362   -0.0000   -0.0164
       5      0.0164   -0.0164   -0.0000   -0.0000    0.1362   -0.0391
       6      0.0000   -0.0000    0.0000   -0.0164   -0.0391   11.1394
-------------------------------------------------------------------------------


  Elastic Compliance Matrix: (Units=1/GPa)

-------------------------------------------------------------------------------
  Indices      1         2         3         4         5         6    
-------------------------------------------------------------------------------
       1    0.027693 -0.017246 -0.000517  0.012917 -0.005403 -0.000000
       2   -0.017246  0.027693 -0.000517 -0.012917  0.005403  0.000000
       3   -0.000517 -0.000517  0.731998 -0.000000  0.000000 -0.000000
       4    0.012917 -0.012917 -0.000000  7.352608  0.000000  0.010807
       5   -0.005403  0.005403  0.000000  0.000000  7.352608  0.025834
       6   -0.000000  0.000000 -0.000000  0.010807  0.025834  0.089878
-------------------------------------------------------------------------------

  Mechanical properties :

-------------------------------------------------------------------------------
  Convention :                    Reuss         Voigt         Hill
-------------------------------------------------------------------------------
  Bulk  Modulus (GPa)     =       1.33187      21.45510      11.39349
  Shear Modulus (GPa)     =       0.31507       7.78329       4.04918
-------------------------------------------------------------------------------
  Velocity S-wave (km/s)  =       0.37254       1.85161       1.33552
  Velocity P-wave (km/s)  =       0.87848       3.74459       2.71972
-------------------------------------------------------------------------------
  Compressibility (1/GPa) =    0.75082247
-------------------------------------------------------------------------------
  Stress axis :                     x             y             z
-------------------------------------------------------------------------------
  Youngs Moduli (GPa)     =      36.11042      36.11042       1.36612
-------------------------------------------------------------------------------
  Poissons Ratio (x)      =                     0.62276       0.00071
  Poissons Ratio (y)      =       0.62276                     0.00071
  Poissons Ratio (z)      =       0.01868       0.01868
-------------------------------------------------------------------------------


  Piezoelectric Strain Matrix: (Units=C/m**2)

-------------------------------------------------------------------------------
  Indices      1         2         3         4         5         6    
-------------------------------------------------------------------------------
       x    -0.00000  -0.00000  -0.00000  -0.00000  -0.00000  -0.00000
       y     0.00000  -0.00000   0.00000   0.00000   0.00000  -0.00000
       z    -0.00000   0.00000  -0.00000   0.00000  -0.00000  -0.00000
-------------------------------------------------------------------------------


  Piezoelectric Stress Matrix: (Units=10**-11 C/N)

-------------------------------------------------------------------------------
  Indices      1         2         3         4         5         6    
-------------------------------------------------------------------------------
       x    -0.00000  -0.00000  -0.00000  -0.00000  -0.00000  -0.00000
       y     0.00000  -0.00000   0.00000   0.00000   0.00000  -0.00000
       z    -0.00000   0.00000  -0.00000   0.00000  -0.00000  -0.00000
-------------------------------------------------------------------------------


  Static dielectric constant tensor : 

-------------------------------------------------------------------------------
              x         y         z
-------------------------------------------------------------------------------
       x     2.69429  -0.00000   0.00000
       y    -0.00000   2.69429   0.00000
       z     0.00000   0.00000   2.22327
--------------------------------------------------------------------------------

  High frequency dielectric constant tensor : 

-------------------------------------------------------------------------------
              x         y         z
-------------------------------------------------------------------------------
       x     2.11991  -0.00000   0.00000
       y    -0.00000   2.11991   0.00000
       z     0.00000   0.00000   1.97865
-------------------------------------------------------------------------------

  Static refractive indices : 

-------------------------------------------------------------------------------
    1 =    1.49106      2 =    1.64143      3 =    1.64143
-------------------------------------------------------------------------------

  High frequency refractive indices : 

-------------------------------------------------------------------------------
    1 =    1.40664      2 =    1.45599      3 =    1.45599
-------------------------------------------------------------------------------


  Time to end of optimisation =       0.4650 seconds

********************************************************************************
*  Defect calculation for configuration   1 :                                  *
********************************************************************************



!!!!!!!!!!!!!!!!!!!!!!!!!!!!!!!!!!!!!!!!!!!!!!!!!!!!!!!!!!!!!!!!!!!!!!!!!!!!!!!!
!! WARNING : Ambiguous vacancy specifier used
!!!!!!!!!!!!!!!!!!!!!!!!!!!!!!!!!!!!!!!!!!!!!!!!!!!!!!!!!!!!!!!!!!!!!!!!!!!!!!!!



!!!!!!!!!!!!!!!!!!!!!!!!!!!!!!!!!!!!!!!!!!!!!!!!!!!!!!!!!!!!!!!!!!!!!!!!!!!!!!!!
!! WARNING : Ambiguous vacancy specifier used
!!!!!!!!!!!!!!!!!!!!!!!!!!!!!!!!!!!!!!!!!!!!!!!!!!!!!!!!!!!!!!!!!!!!!!!!!!!!!!!!

  Total number of defects =      2

  Total charge on defect  =   1.00

  Defect centre is at   0.0737   0.4439   0.7053  Frac

  Region 1 radius =  16.0000      Number of ions =   1072

  Region 2 radius =  24.0000      Number of ions =   2591

  Region 2a mode = 4 : screened electrostatics due to region 1 
                       neglect correction to region 1 forces from 2a
                       region 2a displacements based on defects only

  Region 2a ions will only interact with defects in region 1

  Vacancies:

--------------------------------------------------------------------------------
    Specification type     Symbol/Number         x          y          z
--------------------------------------------------------------------------------
    Atom                    Cl    core
    Atom                    Cl    shel
--------------------------------------------------------------------------------


  Components of defect energy : 

--------------------------------------------------------------------------------
  Region 1 - region 1                   =     24.37316248 eV
  Region 1 - region 2a (unrelaxed)      =    -14.08905787 eV
  Region 1 - 2a (relaxed - correction)  =     -0.17916794 eV
  Region 1 (Total)                      =     10.10493666 eV
  Region 2a                             =      0.08959154 eV
  Region 2b                             =     -0.18241543 eV
--------------------------------------------------------------------------------
  Total defect energy                   =     10.01211277 eV
--------------------------------------------------------------------------------

  Largest displacement in region 2 =   0.0066 Angstroms


  Number of variables =     3216

  Maximum number of calculations  =        1000
  Maximum Hessian update interval =          10
  Maximum step size               =   1.0000000
  Maximum parameter tolerance     =   0.0000100
  Maximum function  tolerance     =   0.0000100
  Maximum gradient  tolerance     =   0.0010000

  Symmetry adapted optimisation

  Newton-Raphson optimiser to be used

  BFGS hessian update to be used

  Lower half triangular hessian to be used

  Start of defect optimisation :

  Cycle:      0 Defect Energy:  10.012113  Gnorm:     0.005604  CPU:   21.969
  ** Hessian calculated **
  Cycle:      1 Defect Energy:   8.977293  Gnorm:     0.004548  CPU:   91.304
  Cycle:      2 Defect Energy:   7.767996  Gnorm:     0.002886  CPU:  125.625
  Cycle:      3 Defect Energy:   6.860675  Gnorm:     0.000515  CPU:  150.916
  Cycle:      4 Defect Energy:   6.816050  Gnorm:     0.000349  CPU:  155.524
  Cycle:      5 Defect Energy:   6.781706  Gnorm:     0.000241  CPU:  160.313
  Cycle:      6 Defect Energy:   6.768904  Gnorm:     0.000200  CPU:  165.376
  ** Hessian calculated **
  Cycle:      7 Defect Energy:   6.748551  Gnorm:     0.000141  CPU:  222.696
  Cycle:      8 Defect Energy:   6.737938  Gnorm:     0.000099  CPU:  228.902
  Cycle:      9 Defect Energy:   6.732104  Gnorm:     0.000070  CPU:  234.450
  Cycle:     10 Defect Energy:   6.728922  Gnorm:     0.000050  CPU:  239.504
  Cycle:     11 Defect Energy:   6.727208  Gnorm:     0.000035  CPU:  244.563
  Cycle:     12 Defect Energy:   6.726289  Gnorm:     0.000025  CPU:  247.852
  Cycle:     13 Defect Energy:   6.725795  Gnorm:     0.000018  CPU:  251.827
  Cycle:     14 Defect Energy:   6.725540  Gnorm:     0.000012  CPU:  257.006
  Cycle:     15 Defect Energy:   6.725413  Gnorm:     0.000009  CPU:  260.084
  Cycle:     16 Defect Energy:   6.725354  Gnorm:     0.000006  CPU:  263.176
  ** Hessian calculated **
  Cycle:     17 Defect Energy:   6.725317  Gnorm:     0.000004  CPU:  288.890
  Cycle:     18 Defect Energy:   6.725302  Gnorm:     0.000003  CPU:  292.000


  **** Optimisation achieved ****


  Final defect energy  =        6.72529478
  Final defect Gnorm   =        0.00000211

  Components of defect energy : 

--------------------------------------------------------------------------------
  Region 1 - region 1                   =     20.82477451 eV
  Region 1 - region 2a (unrelaxed)      =    -13.83567640 eV
  Region 1 - 2a (relaxed - correction)  =     -0.16242197 eV
  Region 1 (Total)                      =      6.82667615 eV
  Region 2a                             =      0.08117295 eV
  Region 2b                             =     -0.18255431 eV
--------------------------------------------------------------------------------
  Total defect energy                   =      6.72529478 eV
--------------------------------------------------------------------------------

  Largest displacement in region 2 =   0.0066 Angstroms

  Final coordinates of region 1 :

--------------------------------------------------------------------------------
   No.  Atomic        x           y           z          Radius      Charge
        Label       (Angs)      (Angs)      (Angs)       (Angs)       (e) 
--------------------------------------------------------------------------------
     1  Sc    c    -3.494651   -2.006753    6.155108    0.000000    3.000000
     2  Sc    c     0.338342    0.204547    6.159269    0.000000    3.000000
     3  Cl    c    -1.816345   -0.486661    5.274285    0.000000    1.485000
     4  Cl    c    -4.340671   -0.261878    7.709814    0.000000    1.485000
     5  Cl    c    -0.749778    1.810594    7.712961    0.000000    1.485000
     6  Cl    c    -3.802109   -3.675377    7.961759    0.000000    1.485000
     7  Cl    c     1.938041   -0.362824    7.965280    0.000000    1.485000
     8  Cl    c    -2.369340   -3.776818    4.830204    0.000000    1.485000
     9  Cl    c     1.307927   -1.655494    4.834364    0.000000    1.485000
    10  Cl    c    -1.064218   -5.633506    7.876440    0.000000    1.485000
    11  Cl    c     2.264434   -3.713999    7.878139    0.000000    1.485000
    12  Cl    c    -1.993685    0.176141   11.392225    0.000000    1.485000
    13  Cl    c     0.831208   -1.817586   11.386117    0.000000    1.485000
    14  Cl    c    -2.001211   -3.808595   11.399967    0.000000    1.485000
    15  Sc    c    -3.109884   -5.584237    6.443807    0.000000    3.000000
    16  Sc    c     3.244570   -1.916700    6.446875    0.000000    3.000000
    17  Cl    c    -5.419717   -1.569768    4.665304    0.000000    1.485000
    18  Cl    c     0.924017    2.089404    4.668702    0.000000    1.485000
    19  Cl    c     1.153359    1.635565   11.389664    0.000000    1.485000
    20  Sc    c     0.002337    0.001546   12.901937    0.000000    3.000000
    21  Cl    c     1.175949   -5.670881    4.917547    0.000000    1.485000
    22  Sc    c     0.000791   -3.638753   12.899881    0.000000    3.000000
    23  Cl    c    -5.444929   -1.819201   11.392493    0.000000    1.485000
    24  Sc    c    -6.431336    0.064955    6.319410    0.000000    3.000000
    25  Sc    c     0.013007    3.783731    6.321509    0.000000    3.000000
    26  Cl    c     1.151100   -5.274985   11.391828    0.000000    1.485000
    27  Sc    c     0.052575   -7.344132    6.409356    0.000000    3.000000
    28  Sc    c     3.186897   -5.535280    6.409089    0.000000    3.000000
    29  Cl    c    -5.481401    1.866560    4.873000    0.000000    1.485000
    30  Cl    c    -2.021247    3.862053    4.873739    0.000000    1.485000
    31  Cl    c    -5.140465    1.632464   11.378167    0.000000    1.485000
    32  Cl    c    -4.281591    3.783142    7.863342    0.000000    1.485000
    33  Cl    c    -7.432611   -1.664419    7.821340    0.000000    1.485000
    34  Cl    c    -1.962226   -7.189517    4.918513    0.000000    1.485000
    35  Cl    c     4.060518   -3.711939    4.919824    0.000000    1.485000
    36  Cl    c     2.011903    3.787991    7.822607    0.000000    1.485000
    37  Cl    c    -4.299012   -7.141757    7.987122    0.000000    1.485000
    38  Cl    c     5.189159   -1.665086    7.988587    0.000000    1.485000
    39  Cl    c     2.035344   -7.159656    7.924180    0.000000    1.485000
    40  Cl    c    -5.168608   -5.600674    5.023467    0.000000    1.485000
    41  Cl    c     4.286729   -0.142138    5.025278    0.000000    1.485000
    42  Sc    c    -3.151564    1.822298   12.891322    0.000000    3.000000
    43  Cl    c    -1.155122   -1.990243    1.466057    0.000000    1.485000
    44  Cl    c    -2.296539    3.636703   11.390526    0.000000    1.485000
    45  Cl    c    -5.140766   -5.271298   11.387550    0.000000    1.485000
    46  Cl    c    -0.867306   -1.818107   14.383824    0.000000    1.485000
    47  Sc    c    -3.151887   -5.456666   12.902332    0.000000    3.000000
    48  Cl    c     4.297204    0.165510   11.400148    0.000000    1.485000
    49  Cl    c    -2.296158   -7.269240   11.400119    0.000000    1.485000
    50  Cl    c     4.295100   -3.800488   11.400775    0.000000    1.485000
    51  Cl    c    -7.135545    1.850492    7.912006    0.000000    1.485000
    52  Cl    c    -1.181594    5.287849    7.912409    0.000000    1.485000
    53  Cl    c    -3.982016   -0.005325    1.473080    0.000000    1.485000
    54  Cl    c    -1.146438    1.659372   14.381973    0.000000    1.485000
    55  Cl    c    -1.145463    1.982143    1.463728    0.000000    1.485000
    56  Cl    c    -4.290666   -3.455713    1.470454    0.000000    1.485000
    57  Sc    c    -6.298953    0.000873   12.891111    0.000000    3.000000
    58  Cl    c     1.989632   -3.449608    1.489361    0.000000    1.485000
    59  Cl    c    -7.449237   -5.593067    7.955006    0.000000    1.485000
    60  Cl    c    -4.285192    0.153906   14.373830    0.000000    1.485000
    61  Cl    c     5.421891    1.836860    7.956226    0.000000    1.485000
    62  Cl    c     2.288838    0.001070    1.472028    0.000000    1.485000
    63  Sc    c    -6.299856   -3.636404   12.894986    0.000000    3.000000
    64  Sc    c     3.153289    1.819091   12.895246    0.000000    3.000000
    65  Cl    c     2.011174    0.158198   14.384308    0.000000    1.485000
    66  Cl    c    -0.855003   -5.448528    1.477864    0.000000    1.485000
    67  Cl    c    -0.852563   -9.119251    7.918923    0.000000    1.485000
    68  Cl    c     5.175927   -5.638699    7.919894    0.000000    1.485000
    69  Cl    c    -1.145200   -5.289503   14.390770    0.000000    1.485000
    70  Sc    c    -6.315153    3.681805    6.402204    0.000000    3.000000
    71  Sc    c    -3.176895    5.492840    6.401375    0.000000    3.000000
    72  Cl    c    -4.289082   -3.787122   14.381650    0.000000    1.485000
    73  Cl    c     2.010835   -3.787213   14.382206    0.000000    1.485000
    74  Sc    c     3.151240   -5.453733   12.896818    0.000000    3.000000
    75  Sc    c    -6.319231   -7.284433    6.495762    0.000000    3.000000
    76  Sc    c     6.321279    0.013162    6.495956    0.000000    3.000000
    77  Cl    c    -8.465837   -0.130978    4.890613    0.000000    1.485000
    78  Cl    c     1.199224    5.446600    4.890813    0.000000    1.485000
    79  Sc    c    -3.148950   -1.818948   -0.046993    0.000000    3.000000
    80  Cl    c    -8.296191    0.173641   11.389597    0.000000    1.485000
    81  Cl    c     3.994179    3.635512   11.389427    0.000000    1.485000
    82  Cl    c    -8.606297   -3.652030    4.940682    0.000000    1.485000
    83  Sc    c     0.003903   -3.640232   -0.027906    0.000000    3.000000
    84  Cl    c     4.319862    3.809307    4.941554    0.000000    1.485000
    85  Cl    c    -8.298235   -3.807178   11.395275    0.000000    1.485000
    86  Cl    c     0.889515   -9.168098    4.922892    0.000000    1.485000
    87  Cl    c     4.348826   -7.172270    4.923566    0.000000    1.485000
    88  Cl    c     1.145445    5.618883   11.396592    0.000000    1.485000
    89  Sc    c    -9.508601   -1.838296    6.412857    0.000000    3.000000
    90  Sc    c     3.199543    5.498218    6.412366    0.000000    3.000000
    91  Cl    c     3.997620   -7.269923   11.394473    0.000000    1.485000
    92  Cl    c    -5.167024    5.316211    4.893742    0.000000    1.485000
    93  Cl    c     1.142750   -9.250087   11.402444    0.000000    1.485000
    94  Cl    c    -4.293635    3.454440    1.481895    0.000000    1.485000
    95  Cl    c     1.991486    3.453206    1.484092    0.000000    1.485000
    96  Sc    c    -3.149859    1.820774   -0.033361    0.000000    3.000000
    97  Cl    c    -4.016347    3.637174   14.380364    0.000000    1.485000
    98  Cl    c    -7.155187   -1.815628   14.385558    0.000000    1.485000
    99  Sc    c    -3.149051    5.457761   12.892367    0.000000    3.000000
   100  Cl    c    -7.433839   -1.981648    1.476004    0.000000    1.485000
   101  Cl    c    -5.151113    5.621174   11.395700    0.000000    1.485000
   102  Cl    c     5.142317   -1.986872    1.488777    0.000000    1.485000
   103  Sc    c     3.151550   -1.818860   -0.021570    0.000000    3.000000
   104  Cl    c     7.144001   -1.817979   11.395818    0.000000    1.485000
   105  Cl    c     2.273638    3.632722   14.379304    0.000000    1.485000
   106  Cl    c    -4.016163   -7.272229   14.390800    0.000000    1.485000
   107  Cl    c    -5.425393   -9.077048    4.996165    0.000000    1.485000
   108  Cl    c     7.427356   -1.657510    4.997171    0.000000    1.485000
   109  Sc    c     6.300285   -0.001442   12.901789    0.000000    3.000000
   110  Cl    c    -4.288715   -7.430524    1.486791    0.000000    1.485000
   111  Cl    c     2.001960   -7.430779    1.486840    0.000000    1.485000
   112  Sc    c    -3.149909   -9.091444   12.899418    0.000000    3.000000
   113  Sc    c     6.298892   -3.635620   12.900543    0.000000    3.000000
   114  Sc    c    -9.458559   -5.464275    6.454317    0.000000    3.000000
   115  Sc    c     6.314768    3.642016    6.456216    0.000000    3.000000
   116  Cl    c     5.423521   -1.818087   14.386620    0.000000    1.485000
   117  Cl    c     2.274952   -7.266521   14.383974    0.000000    1.485000
   118  Cl    c    -5.154001   -9.251524   11.405159    0.000000    1.485000
   119  Cl    c    -7.445413    5.313213    7.920847    0.000000    1.485000
   120  Cl    c    -4.024754    7.286534    7.921075    0.000000    1.485000
   121  Cl    c   -10.298469   -3.642246    7.954827    0.000000    1.485000
   122  Cl    c     5.156123    5.281101    7.955366    0.000000    1.485000
   123  Cl    c    -8.332765    3.813084    4.931678    0.000000    1.485000
   124  Cl    c    -2.281699    7.306665    4.932082    0.000000    1.485000
   125  Cl    c    -1.996279    7.095956   11.387839    0.000000    1.485000
   126  Sc    c     0.002803  -10.960738    6.441209    0.000000    3.000000
   127  Cl    c    -8.289278   -7.103317    4.963924    0.000000    1.485000
   128  Sc    c     6.344046   -7.299984    6.442851    0.000000    3.000000
   129  Cl    c     7.149287    1.810448    4.964859    0.000000    1.485000
   130  Cl    c   -10.596367   -0.171426    7.928851    0.000000    1.485000
   131  Cl    c     2.299628    7.273127    7.928963    0.000000    1.485000
   132  Cl    c    -0.856158    5.443605    1.479036    0.000000    1.485000
   133  Sc    c     0.002592    3.638948   -0.030672    0.000000    3.000000
   134  Cl    c    -7.135193   -5.448209    1.493705    0.000000    1.485000
   135  Cl    c    -7.164211   -9.105672    7.984378    0.000000    1.485000
   136  Cl    c     8.320613   -0.165143    7.985242    0.000000    1.485000
   137  Cl    c    -2.285242    0.005146   -1.526257    0.000000    1.485000
   138  Cl    c    -1.997359   -3.477163   -1.524199    0.000000    1.485000
   139  Cl    c    -7.432237    1.663636   14.378525    0.000000    1.485000
   140  Sc    c    -6.300005   -3.638442   -0.023016    0.000000    3.000000
   141  Sc    c     3.151377    1.819983   -0.024243    0.000000    3.000000
   142  Cl    c     5.152469    1.654147   14.391328    0.000000    1.485000
   143  Cl    c    -7.435033    1.978617    1.481795    0.000000    1.485000
   144  Cl    c     1.142520   -1.975059   -1.510313    0.000000    1.485000
   145  Sc    c     3.147881    5.454169   12.895409    0.000000    3.000000
   146  Cl    c     5.142213    1.984281    1.486075    0.000000    1.485000
   147  Cl    c    -1.148747   -8.908418    1.498240    0.000000    1.485000
   148  Cl    c    -1.139256    5.604444   14.378634    0.000000    1.485000
   149  Cl    c    -8.585749    3.637381   11.398086    0.000000    1.485000
   150  Cl    c    -7.434933   -5.294487   14.386271    0.000000    1.485000
   151  Sc    c     0.002187   -7.275876   -0.013611    0.000000    3.000000
   152  Cl    c     5.149921   -5.286128   14.394211    0.000000    1.485000
   153  Cl    c    -1.998823  -10.730810   11.395827    0.000000    1.485000
   154  Cl    c     7.440706    1.650247   11.403706    0.000000    1.485000
   155  Cl    c    -2.009637  -11.083393    4.956832    0.000000    1.485000
   156  Cl    c     7.455469   -5.618647    4.957440    0.000000    1.485000
   157  Cl    c    -4.286687  -11.066995    7.952902    0.000000    1.485000
   158  Cl    c     8.580997   -3.639062    7.953476    0.000000    1.485000
   159  Cl    c     5.432276   -5.451161    1.488812    0.000000    1.485000
   160  Cl    c     2.004324  -11.080649    7.939883    0.000000    1.485000
   161  Cl    c     5.447207   -9.094309    7.940249    0.000000    1.485000
   162  Cl    c    -8.585486   -7.270121   11.404261    0.000000    1.485000
   163  Sc    c     3.147167   -9.088101   12.898261    0.000000    3.000000
   164  Cl    c     7.441983   -5.287882   11.405773    0.000000    1.485000
   165  Cl    c    -1.140858   -9.238930   14.386798    0.000000    1.485000
   166  Cl    c    -2.291929    0.000709   17.862777    0.000000    1.485000
   167  Cl    c    -2.000107   -3.465071   17.861781    0.000000    1.485000
   168  Cl    c    -5.162275   -1.983279   -1.521744    0.000000    1.485000
   169  Cl    c     1.144659   -1.983866   17.863295    0.000000    1.485000
   170  Sc    c    -9.445977    1.820285   12.893451    0.000000    3.000000
   171  Sc    c     0.000258    7.271783   12.894340    0.000000    3.000000
   172  Cl    c     1.143739    1.975579   -1.514378    0.000000    1.485000
   173  Cl    c     0.869360   -5.460990   -1.508994    0.000000    1.485000
   174  Sc    c    -9.447183   -5.454021   12.899527    0.000000    3.000000
   175  Sc    c    -0.000518  -10.903967   12.900039    0.000000    3.000000
   176  Cl    c   -11.526757   -1.673333    4.948693    0.000000    1.485000
   177  Cl    c     4.065666    7.329086    4.948958    0.000000    1.485000
   178  Sc    c    -6.299910  -10.911778    6.470525    0.000000    3.000000
   179  Sc    c     9.453114   -1.817042    6.472252    0.000000    3.000000
   180  Cl    c    -2.003206    3.474534   -1.520567    0.000000    1.485000
   181  Cl    c    -5.148831   -1.984926   17.862338    0.000000    1.485000
   182  Sc    c    -6.299271    3.636413   -0.015084    0.000000    3.000000
   183  Cl    c    -5.163135    1.975530   -1.510539    0.000000    1.485000
   184  Cl    c     4.009450   -0.000801   -1.512880    0.000000    1.485000
   185  Cl    c     1.145467    1.983188   17.864057    0.000000    1.485000
   186  Cl    c   -10.578096    3.795670    7.934228    0.000000    1.485000
   187  Cl    c    -1.143783    9.242364    7.934291    0.000000    1.485000
   188  Cl    c     0.854881   -5.449977   17.862429    0.000000    1.485000
   189  Cl    c     4.295115    7.101666   11.398209    0.000000    1.485000
   190  Cl    c   -10.592336   -7.117663    7.950230    0.000000    1.485000
   191  Cl    c     8.314390    3.798007    7.950768    0.000000    1.485000
   192  Cl    c    -1.158400  -12.578367    7.955312    0.000000    1.485000
   193  Cl    c     8.326415   -7.102743    7.955664    0.000000    1.485000
   194  Sc    c    -6.294610   -7.273134   -0.007937    0.000000    3.000000
   195  Sc    c    -9.466556    5.469376    6.439578    0.000000    3.000000
   196  Sc    c    -3.149775    9.115851    6.440809    0.000000    3.000000
   197  Cl    c    -5.425742   -5.457689   -1.502873    0.000000    1.485000
   198  Cl    c     4.292607   -3.482234   -1.501722    0.000000    1.485000
   199  Sc    c    -3.146573   -9.090280   -0.005663    0.000000    3.000000
   200  Sc    c     6.299053   -3.637123   -0.006116    0.000000    3.000000
   201  Cl    c    -2.008156   -7.429363   -1.498374    0.000000    1.485000
   202  Cl    c   -11.731827   -1.816591   11.405264    0.000000    1.485000
   203  Cl    c     4.294621  -10.736739   11.402785    0.000000    1.485000
   204  Cl    c    -2.000681    3.464661   17.861761    0.000000    1.485000
   205  Cl    c    -7.144385    5.447572    1.494043    0.000000    1.485000
   206  Cl    c   -10.285222   -0.002056    1.497174    0.000000    1.485000
   207  Cl    c     4.292642  -11.069688    4.964450    0.000000    1.485000
   208  Cl    c    -5.148148    1.984081   17.863235    0.000000    1.485000
   209  Cl    c    -4.290595    7.107099   14.389027    0.000000    1.485000
   210  Cl    c     2.000033    7.100561   14.392384    0.000000    1.485000
   211  Cl    c   -11.446321    1.645969   11.396610    0.000000    1.485000
   212  Cl    c     4.000288    0.001073   17.861261    0.000000    1.485000
   213  Sc    c    -3.160556  -12.732371    6.455013    0.000000    3.000000
   214  Sc    c     9.459916   -5.446093    6.454246    0.000000    3.000000
   215  Cl    c   -11.456349   -5.622361    4.957107    0.000000    1.485000
   216  Cl    c     7.449630    5.292570    4.957556    0.000000    1.485000
   217  Sc    c    -6.297273    7.272250   12.896815    0.000000    3.000000
   218  Sc    c    -9.446303   -1.816824   -0.012938    0.000000    3.000000
   219  Cl    c     0.857181    9.089862   11.400566    0.000000    1.485000
   220  Cl    c   -11.445428   -5.280259   11.399427    0.000000    1.485000
   221  Cl    c   -11.734053    1.813214    4.963062    0.000000    1.485000
   222  Cl    c     1.150788    9.251145    4.963016    0.000000    1.485000
   223  Cl    c    -5.437765   -5.449742   17.862828    0.000000    1.485000
   224  Cl    c     4.292154   -3.466901   17.862732    0.000000    1.485000
   225  Cl    c    -4.291295    7.427218    1.488677    0.000000    1.485000
   226  Cl    c     2.001640    7.426953    1.487722    0.000000    1.485000
   227  Cl    c   -10.580232   -3.469132    1.489321    0.000000    1.485000
   228  Cl    c     1.157732  -12.605342    4.952330    0.000000    1.485000
   229  Cl    c     7.190787   -9.121454    4.952587    0.000000    1.485000
   230  Cl    c    -7.439463   -8.914866    1.496949    0.000000    1.485000
   231  Cl    c     8.292784   -3.462764    1.499299    0.000000    1.485000
   232  Cl    c    -2.002840   -7.432170   17.864395    0.000000    1.485000
   233  Cl    c     5.146254   -8.911254    1.500608    0.000000    1.485000
   234  Cl    c    -7.431093    5.606100   14.384587    0.000000    1.485000
   235  Cl    c   -10.576625    0.157635   14.385558    0.000000    1.485000
   236  Cl    c     5.430766    5.447931    1.489795    0.000000    1.485000
   237  Cl    c     5.152012    5.606475   14.387500    0.000000    1.485000
   238  Cl    c    -4.002576  -10.902392    1.495599    0.000000    1.485000
   239  Cl    c     8.301409    0.161245   14.395853    0.000000    1.485000
   240  Sc    c   -12.621009    0.008115    6.456279    0.000000    3.000000
   241  Cl    c    -4.292484  -10.739759   14.396904    0.000000    1.485000
   242  Sc    c     3.156754    9.116909    6.457393    0.000000    3.000000
   243  Sc    c    -3.147621   -1.816971   19.361103    0.000000    3.000000
   244  Cl    c     2.000053  -10.733422   14.397519    0.000000    1.485000
   245  Cl    c   -10.579460   -3.789432   14.388449    0.000000    1.485000
   246  Sc    c     3.151117   -9.089050   -0.004060    0.000000    3.000000
   247  Cl    c     8.299398   -3.793989   14.396430    0.000000    1.485000
   248  Sc    c     0.000171   -3.634017   19.362773    0.000000    3.000000
   249  Sc    c    -6.298414  -10.905426   12.903920    0.000000    3.000000
   250  Cl    c     8.578991   -0.003134    1.493356    0.000000    1.485000
   251  Cl    c     7.437346    5.615433   11.405729    0.000000    1.485000
   252  Cl    c     2.286318  -10.900893    1.493287    0.000000    1.485000
   253  Cl    c    -8.295656    7.098627   11.395707    0.000000    1.485000
   254  Cl    c     0.856368  -12.719866   11.403491    0.000000    1.485000
   255  Cl    c    -7.434695   -9.240658   14.391765    0.000000    1.485000
   256  Cl    c     5.150254   -9.241022   14.392456    0.000000    1.485000
   257  Cl    c     0.867181    5.461444   -1.510301    0.000000    1.485000
   258  Cl    c    -8.306382   -3.472654   -1.508773    0.000000    1.485000
   259  Sc    c    -9.445378    1.816657   -0.008969    0.000000    3.000000
   260  Cl    c    -8.587532    7.276665    4.947009    0.000000    1.485000
   261  Cl    c    -5.153713    9.257907    4.947114    0.000000    1.485000
   262  Sc    c    -0.000474    7.273053   -0.009996    0.000000    3.000000
   263  Sc    c    -9.443275    5.454206   12.899068    0.000000    3.000000
   264  Sc    c     3.161253  -12.736742    6.454597    0.000000    3.000000
   265  Sc    c     6.302750  -10.923258    6.453518    0.000000    3.000000
   266  Cl    c     4.294680    3.480596   -1.505689    0.000000    1.485000
   267  Cl    c    -5.157631  -12.544145    4.954415    0.000000    1.485000
   268  Cl    c    10.295387   -3.621569    4.954808    0.000000    1.485000
   269  Cl    c     7.435878   -9.247761   11.411449    0.000000    1.485000
   270  Cl    c    -5.434384    9.089292   11.404635    0.000000    1.485000
   271  Sc    c     6.298713    3.636040   -0.006859    0.000000    3.000000
   272  Cl    c    -8.575769    0.000597   -1.500604    0.000000    1.485000
   273  Cl    c    -8.296151  -10.732370   11.401472    0.000000    1.485000
   274  Cl    c     1.147605   -8.929987   -1.501613    0.000000    1.485000
   275  Sc    c    -3.147397    1.817628   19.362767    0.000000    3.000000
   276  Cl    c    -8.302869  -11.051662    4.975692    0.000000    1.485000
   277  Cl    c    10.574697   -0.152770    4.976082    0.000000    1.485000
   278  Sc    c    -9.444550   -9.087741   12.903373    0.000000    3.000000
   279  Sc    c     9.445215    1.818086   12.902391    0.000000    3.000000
   280  Sc    c     6.296732   -7.270877   -0.004795    0.000000    3.000000
   281  Sc    c     3.147640   -1.816644   19.360961    0.000000    3.000000
   282  Cl    c     4.287686   -7.426863   -1.494349    0.000000    1.485000
   283  Cl    c    -1.151336    8.907950    1.498500    0.000000    1.485000
   284  Sc    c     9.444844   -5.453296   12.906675    0.000000    3.000000
   285  Cl    c   -10.298226    3.634191   14.393639    0.000000    1.485000
   286  Cl    c     0.856694    5.451042   17.863441    0.000000    1.485000
   287  Cl    c    10.585548    0.161687   11.409111    0.000000    1.485000
   288  Cl    c    -5.434747  -12.719139   11.408110    0.000000    1.485000
   289  Cl    c    -8.295310   -3.465652   17.862498    0.000000    1.485000
   290  Cl    c     4.291210    3.467729   17.863890    0.000000    1.485000
   291  Cl    c    10.583486   -3.797283   11.411088    0.000000    1.485000
   292  Cl    c   -10.583233    3.466370    1.492573    0.000000    1.485000
   293  Cl    c    -5.428434    5.453961   -1.499571    0.000000    1.485000
   294  Cl    c     8.290482    3.459422    1.501180    0.000000    1.485000
   295  Cl    c    -8.581394    0.000627   17.864426    0.000000    1.485000
   296  Cl    c    -0.866828    9.082383   14.389702    0.000000    1.485000
   297  Cl    c    -5.148463   -8.923718   -1.501478    0.000000    1.485000
   298  Cl    c    -7.431855    9.239748    7.934161    0.000000    1.485000
   299  Cl    c   -10.300850   -7.268201   14.398358    0.000000    1.485000
   300  Cl    c   -13.741544   -1.652149    7.957721    0.000000    1.485000
   301  Cl    c     1.145669   -8.917349   17.862730    0.000000    1.485000
   302  Cl    c     5.155665    9.257855    7.957576    0.000000    1.485000
   303  Sc    c   -12.591675    0.000310   12.902485    0.000000    3.000000
   304  Cl    c    -7.445077  -12.563462    7.961162    0.000000    1.485000
   305  Cl    c    11.456997   -1.650588    7.961479    0.000000    1.485000
   306  Cl    c     5.153728  -12.559730    7.960979    0.000000    1.485000
   307  Sc    c   -12.592273   -3.633509   12.902382    0.000000    3.000000
   308  Sc    c     6.295706    7.270482   12.901144    0.000000    3.000000
   309  Sc    c   -12.595512    3.635246    6.453743    0.000000    3.000000
   310  Sc    c     0.003022   10.908799    6.452540    0.000000    3.000000
   311  Sc    c     0.000219    3.634514   19.361632    0.000000    3.000000
   312  Sc    c    -6.295099   -3.634136   19.362369    0.000000    3.000000
   313  Sc    c     3.147586    1.817538   19.362957    0.000000    3.000000
   314  Cl    c   -11.465123    5.286419    4.944875    0.000000    1.485000
   315  Cl    c    -1.992874   10.754725    4.944832    0.000000    1.485000
   316  Cl    c     7.435424   -1.974621   -1.493709    0.000000    1.485000
   317  Cl    c   -10.305867    7.280724    7.947198    0.000000    1.485000
   318  Cl    c    -4.299504   10.748886    7.947253    0.000000    1.485000
   319  Cl    c   -13.443623    1.826913    7.966251    0.000000    1.485000
   320  Cl    c     1.992432   10.739418    7.966112    0.000000    1.485000
   321  Cl    c     4.290005   -7.431299   17.865055    0.000000    1.485000
   322  Cl    c   -10.582060   -7.429660    1.491743    0.000000    1.485000
   323  Cl    c     8.297469   -7.429706    1.492976    0.000000    1.485000
   324  Sc    c   -12.601792   -7.276656    6.455244    0.000000    3.000000
   325  Sc    c     9.455819    5.458305    6.454445    0.000000    3.000000
   326  Sc    c     0.000201   -7.268295   19.361378    0.000000    3.000000
   327  Cl    c    -8.303185    3.469418   -1.505628    0.000000    1.485000
   328  Cl    c     8.570845    3.632184   14.391773    0.000000    1.485000
   329  Cl    c    -0.856144   -1.817702   -4.957883    0.000000    1.485000
   330  Cl    c    -0.866881  -12.716815   14.393464    0.000000    1.485000
   331  Sc    c     6.294758  -10.904267   12.905925    0.000000    3.000000
   332  Sc    c    -6.297230    7.270535   -0.005498    0.000000    3.000000
   333  Cl    c    -1.144391  -12.882364    1.494214    0.000000    1.485000
   334  Cl    c    -5.434435    5.451188   17.864646    0.000000    1.485000
   335  Cl    c    -1.142263   -1.976531   20.853580    0.000000    1.485000
   336  Cl    c    -5.147395   -8.916231   17.861709    0.000000    1.485000
   337  Cl    c     8.574369   -7.267694   14.397884    0.000000    1.485000
   338  Cl    c   -11.446721    5.617671   11.405215    0.000000    1.485000
   339  Cl    c    -2.009068    7.425329   -1.497536    0.000000    1.485000
   340  Cl    c    10.293304    3.635207   11.401174    0.000000    1.485000
   341  Cl    c     7.155202   -5.453556   -1.500865    0.000000    1.485000
   342  Cl    c    -8.302127   -7.427842   -1.494893    0.000000    1.485000
   343  Cl    c     7.437288   -1.980979   17.864871    0.000000    1.485000
   344  Cl    c   -13.731700   -5.612529    7.947007    0.000000    1.485000
   345  Cl    c     8.579631    7.268157    7.947200    0.000000    1.485000
   346  Cl    c    -2.002976   11.067638   11.408409    0.000000    1.485000
   347  Sc    c     9.444934   -1.818270   -0.002589    0.000000    3.000000
   348  Cl    c    -4.022169  -14.546082    7.948210    0.000000    1.485000
   349  Cl    c    11.460791   -5.606255    7.948502    0.000000    1.485000
   350  Cl    c     7.435147    1.972217   -1.493277    0.000000    1.485000
   351  Cl    c    -2.280008  -10.905828   -1.494833    0.000000    1.485000
   352  Cl    c    10.296293   -7.270048   11.407229    0.000000    1.485000
   353  Cl    c    -1.145480    1.648738   -4.958175    0.000000    1.485000
   354  Cl    c   -11.726120   -9.085327    4.960424    0.000000    1.485000
   355  Cl    c    10.584978    3.795159    4.960693    0.000000    1.485000
   356  Cl    c   -11.449179   -9.248124   11.410519    0.000000    1.485000
   357  Cl    c    -8.295117    3.465667   17.862147    0.000000    1.485000
   358  Cl    c    -2.293699  -14.538608    4.954327    0.000000    1.485000
   359  Cl    c    10.591505   -7.100201    4.954557    0.000000    1.485000
   360  Cl    c   -10.586081  -11.060776    7.949047    0.000000    1.485000
   361  Cl    c    11.725177    1.819835    7.949165    0.000000    1.485000
   362  Cl    c    -4.291236    0.165835   -4.959290    0.000000    1.485000
   363  Cl    c     2.001961    0.167547   -4.958003    0.000000    1.485000
   364  Cl    c    -1.146213   -5.281189   -4.956429    0.000000    1.485000
   365  Cl    c     2.290259  -14.543839    7.952018    0.000000    1.485000
   366  Cl    c     8.302482  -11.071912    7.952136    0.000000    1.485000
   367  Cl    c    -4.010136   -0.000433   20.854410    0.000000    1.485000
   368  Cl    c    -4.291822   -3.798802   -4.959558    0.000000    1.485000
   369  Cl    c     2.001471   -3.800854   -4.957907    0.000000    1.485000
   370  Sc    c    -3.149606    9.085275   -0.005114    0.000000    3.000000
   371  Cl    c    -1.140878    1.976686   20.853552    0.000000    1.485000
   372  Cl    c    -4.288404   -3.473339   20.853656    0.000000    1.485000
   373  Cl    c     2.005133   -3.471432   20.854876    0.000000    1.485000
   374  Cl    c    -2.002817    7.432589   17.864716    0.000000    1.485000
   375  Cl    c     2.281859   -0.000465   20.853264    0.000000    1.485000
   376  Cl    c    -0.863943   -5.450939   20.854122    0.000000    1.485000
   377  Cl    c     7.149121   -5.449830   17.861889    0.000000    1.485000
   378  Sc    c     0.000887   10.905707   12.903817    0.000000    3.000000
   379  Cl    c    -8.298566   -7.433198   17.864389    0.000000    1.485000
   380  Cl    c    -2.005407  -14.699806   11.409362    0.000000    1.485000
   381  Sc    c    -9.443203    9.095082    6.447072    0.000000    3.000000
   382  Sc    c    -6.301354   10.908715    6.445998    0.000000    3.000000
   383  Sc    c    -6.294520    3.634993   19.361351    0.000000    3.000000
   384  Cl    c     7.438971    1.981329   17.864679    0.000000    1.485000
   385  Sc    c    -9.443035   -9.088017   -0.001777    0.000000    3.000000
   386  Sc    c     9.442740    1.814927   -0.000142    0.000000    3.000000
   387  Cl    c    -2.288543  -10.898425   17.862727    0.000000    1.485000
   388  Sc    c     9.440936    5.451350   12.903624    0.000000    3.000000
   389  Sc    c    -3.147789  -12.723751   -0.002004    0.000000    3.000000
   390  Sc    c    -6.295360   -7.268000   19.360103    0.000000    3.000000
   391  Cl    c   -14.623944   -0.153698    4.966454    0.000000    1.485000
   392  Sc    c    -3.147280   -9.084173   19.362506    0.000000    3.000000
   393  Cl    c     4.297605   10.770019    4.966238    0.000000    1.485000
   394  Sc    c     6.294537   -3.633706   19.361746    0.000000    3.000000
   395  Cl    c    -7.440333    8.918128    1.494740    0.000000    1.485000
   396  Cl    c     5.144732    8.912073    1.500065    0.000000    1.485000
   397  Cl    c    -7.155593    9.083922   14.396348    0.000000    1.485000
   398  Sc    c    -0.000758  -14.537516   12.903405    0.000000    3.000000
   399  Cl    c   -13.442615   -1.816313   14.401932    0.000000    1.485000
   400  Sc    c     9.440849   -9.086801   12.907222    0.000000    3.000000
   401  Sc    c    -9.446348  -12.721123    6.458604    0.000000    3.000000
   402  Sc    c    12.593131    0.003388    6.457650    0.000000    3.000000
   403  Cl    c   -11.452730   -1.979465   -1.499827    0.000000    1.485000
   404  Sc    c     3.148162    9.085677   -0.003537    0.000000    3.000000
   405  Cl    c   -14.594724    0.165318   11.408106    0.000000    1.485000
   406  Cl    c     7.151602    9.088812   11.406542    0.000000    1.485000
   407  Sc    c   -12.590205   -3.636545   -0.001842    0.000000    3.000000
   408  Sc    c     6.294661    7.269015   -0.002075    0.000000    3.000000
   409  Cl    c   -14.595922   -3.798577   11.409019    0.000000    1.485000
   410  Cl    c   -13.727699   -1.979975    1.494019    0.000000    1.485000
   411  Cl    c     4.287875    7.425689   -1.494276    0.000000    1.485000
   412  Cl    c    11.444945   -1.982929    1.495717    0.000000    1.485000
   413  Sc    c    -9.441578   -1.815918   19.361415    0.000000    3.000000
   414  Cl    c     5.427042    9.082701   14.395363    0.000000    1.485000
   415  Cl    c   -14.869707   -3.630990    4.967094    0.000000    1.485000
   416  Cl    c     7.433436    9.244747    4.967042    0.000000    1.485000
   417  Cl    c    -4.000315    3.630139   -4.955386    0.000000    1.485000
   418  Cl    c     4.011160  -10.905234   -1.496657    0.000000    1.485000
   419  Cl    c    -7.146682   -1.817341   -4.955840    0.000000    1.485000
   420  Cl    c    -7.156788  -12.720249   14.399468    0.000000    1.485000
   421  Cl    c     4.023205  -14.547772    4.957937    0.000000    1.485000
   422  Cl    c     7.441082  -12.575538    4.957989    0.000000    1.485000
   423  Cl    c     4.290233   11.063902   11.412656    0.000000    1.485000
   424  Cl    c    -4.289418    3.473166   20.854952    0.000000    1.485000
   425  Sc    c     3.146298  -12.721645   -0.001635    0.000000    3.000000
   426  Cl    c     2.003780    3.471862   20.856003    0.000000    1.485000
   427  Cl    c     1.144443    8.926608   -1.500074    0.000000    1.485000
   428  Cl    c     2.289618    3.630992   -4.956743    0.000000    1.485000
   429  Cl    c     7.152563  -12.719979   11.409115    0.000000    1.485000
   430  Cl    c    -4.002191   -7.266045   -4.955044    0.000000    1.485000
   431  Cl    c   -11.441268   -1.983152   17.861128    0.000000    1.485000
   432  Cl    c   -13.728266    5.294129    7.947574    0.000000    1.485000
   433  Cl    c    -0.867363   12.718266    7.947579    0.000000    1.485000
   434  Sc    c     3.147443   -9.084833   19.361994    0.000000    3.000000
   435  Cl    c    -4.007929   10.898074    1.495115    0.000000    1.485000
   436  Cl    c   -13.438459   -5.452899    1.499613    0.000000    1.485000
   437  Cl    c   -13.451423   -9.092880    7.953220    0.000000    1.485000
   438  Cl    c    11.452912    5.286385    7.953348    0.000000    1.485000
   439  Cl    c   -11.451114    1.976300   -1.497667    0.000000    1.485000
   440  Cl    c    -7.436958  -12.880250    1.492694    0.000000    1.485000
   441  Cl    c   -10.581200    7.106471   14.396664    0.000000    1.485000
   442  Cl    c     7.157156    5.453777   -1.498688    0.000000    1.485000
   443  Cl    c    -7.435354   -1.976142   20.853741    0.000000    1.485000
   444  Cl    c     5.148803  -12.879153    1.495151    0.000000    1.485000
   445  Cl    c     5.151522   -1.977416   20.854374    0.000000    1.485000
   446  Cl    c     8.293888    7.100397   14.400796    0.000000    1.485000
   447  Sc    c    -6.293175   10.905161   12.906117    0.000000    3.000000
   448  Cl    c    11.721591   -1.817265   14.398427    0.000000    1.485000
   449  Cl    c     5.433809   -1.817120   -4.956136    0.000000    1.485000
   450  Cl    c     2.288649   -7.265979   -4.956791    0.000000    1.485000
   451  Cl    c     5.427956  -12.718978   14.398061    0.000000    1.485000
   452  Cl    c     2.286069   10.897898    1.495222    0.000000    1.485000
   453  Sc    c     0.000754   -0.000967   -6.456793    0.000000    3.000000
   454  Cl    c   -10.296654  -10.903617    1.497284    0.000000    1.485000
   455  Cl    c   -13.727982    1.657653   14.396298    0.000000    1.485000
   456  Cl    c     4.289975    7.429712   17.862750    0.000000    1.485000
   457  Sc    c     0.000749   -3.634217   -6.457432    0.000000    3.000000
   458  Cl    c    -4.289473   -7.425765   20.852713    0.000000    1.485000
   459  Cl    c   -10.580588    7.429816    1.493457    0.000000    1.485000
   460  Cl    c   -13.726863    1.978139    1.493668    0.000000    1.485000
   461  Cl    c     2.005365   -7.426964   20.853769    0.000000    1.485000
   462  Sc    c    -9.440966    1.816990   19.362406    0.000000    3.000000
   463  Sc    c    -0.000259    7.268452   19.362186    0.000000    3.000000
   464  Cl    c    11.444612    1.654101   14.400322    0.000000    1.485000
   465  Cl    c    -8.298871   10.740089    4.944752    0.000000    1.485000
   466  Cl    c     4.002321  -10.899175   17.860494    0.000000    1.485000
   467  Cl    c     8.295405    7.430068    1.495901    0.000000    1.485000
   468  Cl    c    11.443038    1.981212    1.497912    0.000000    1.485000
   469  Cl    c    -4.286091   11.059245   14.396945    0.000000    1.485000
   470  Cl    c     4.289354  -14.695124   11.412513    0.000000    1.485000
   471  Cl    c    -4.294464  -14.368764    1.498717    0.000000    1.485000
   472  Cl    c     2.006532   11.059166   14.395831    0.000000    1.485000
   473  Cl    c     1.999151  -14.366549    1.499526    0.000000    1.485000
   474  Cl    c   -13.728220   -5.289582   14.397838    0.000000    1.485000
   475  Cl    c   -10.583708  -10.739413   14.400637    0.000000    1.485000
   476  Cl    c   -11.721574   -5.451059   -1.494117    0.000000    1.485000
   477  Sc    c   -15.747199   -1.822555    6.462761    0.000000    3.000000
   478  Sc    c     6.305149   10.909308    6.461475    0.000000    3.000000
   479  Sc    c     6.295035    3.634003   19.360824    0.000000    3.000000
   480  Cl    c    11.444823   -5.285746   14.403652    0.000000    1.485000
   481  Cl    c     8.293939  -10.734946   14.405106    0.000000    1.485000
   482  Cl    c    -5.151112    8.919209   -1.501893    0.000000    1.485000
   483  Cl    c    -7.438016    1.648919   -4.955272    0.000000    1.485000
   484  Cl    c     7.438277   -8.925828   -1.496318    0.000000    1.485000
   485  Cl    c     5.145136    1.648037   -4.953759    0.000000    1.485000
   486  Cl    c     1.145074    8.914368   17.859723    0.000000    1.485000
   487  Sc    c    12.589871   -0.000981   12.907156    0.000000    3.000000
   488  Cl    c    -1.144020    5.615025   -4.955782    0.000000    1.485000
   489  Cl    c    -7.437451   -5.281659   -4.954936    0.000000    1.485000
   490  Cl    c   -11.439925    1.983159   17.860856    0.000000    1.485000
   491  Cl    c    -0.864243    5.450372   20.854139    0.000000    1.485000
   492  Sc    c    -6.293290  -14.538287   12.905431    0.000000    3.000000
   493  Cl    c   -14.597674    3.789010    4.959098    0.000000    1.485000
   494  Sc    c    12.589276   -3.633908   12.906581    0.000000    3.000000
   495  Cl    c     0.870781   12.720593    4.959123    0.000000    1.485000
   496  Cl    c     5.145670   -5.280338   -4.953163    0.000000    1.485000
   497  Cl    c    -7.156200   -5.451231   20.855078    0.000000    1.485000
   498  Sc    c   -12.589961  -10.905625    6.451981    0.000000    3.000000
   499  Cl    c     7.147008    5.449935   17.859350    0.000000    1.485000
   500  Cl    c     1.147402   12.554141   11.406584    0.000000    1.485000
   501  Sc    c    12.592793    3.633611    6.453144    0.000000    3.000000
   502  Cl    c   -14.597171   -7.102387    4.953501    0.000000    1.485000
   503  Sc    c     6.294444   -7.267603   19.360816    0.000000    3.000000
   504  Cl    c    10.302521    7.274210    4.953632    0.000000    1.485000
   505  Cl    c     1.139363  -12.877090   -1.492646    0.000000    1.485000
   506  Cl    c    -7.433988    1.976750   20.853488    0.000000    1.485000
   507  Sc    c   -12.589997    3.635188   -0.002434    0.000000    3.000000
   508  Cl    c     5.152879    1.977808   20.854426    0.000000    1.485000
   509  Cl    c    -8.303251    7.426602   -1.495237    0.000000    1.485000
   510  Cl    c    -1.142846   -8.921128   20.856147    0.000000    1.485000
   511  Sc    c    -3.146360    1.816066   -6.458534    0.000000    3.000000
   512  Cl    c    11.723333   -5.449186    1.492794    0.000000    1.485000
   513  Cl    c    -1.141843  -16.507664    7.944306    0.000000    1.485000
   514  Cl    c    11.720132   -9.082729    7.944307    0.000000    1.485000
   515  Cl    c     8.576776  -10.899784    1.493731    0.000000    1.485000
   516  Cl    c    10.298690   -0.000256   -1.498756    0.000000    1.485000
   517  Sc    c    -3.148125  -16.358467    6.451762    0.000000    3.000000
   518  Sc    c    12.594086   -7.269685    6.453036    0.000000    3.000000
   519  Cl    c    -4.287451  -14.693260   14.397928    0.000000    1.485000
   520  Cl    c    -1.143953   -9.246773   -4.956300    0.000000    1.485000
   521  Cl    c     2.004290  -14.691357   14.396606    0.000000    1.485000
   522  Cl    c    -8.295972   11.063209   11.409802    0.000000    1.485000
   523  Sc    c    -3.147108   -5.451271   -6.456398    0.000000    3.000000
   524  Sc    c   -12.588197   -7.269711   -0.003327    0.000000    3.000000
   525  Cl    c   -11.725523   -5.449641   17.862958    0.000000    1.485000
   526  Cl    c    13.442310   -1.817191   11.406640    0.000000    1.485000
   527  Cl    c     5.428952   -5.450486   20.853100    0.000000    1.485000
   528  Cl    c    -5.146992    8.915089   17.860861    0.000000    1.485000
   529  Cl    c    10.583157    7.104316   11.407930    0.000000    1.485000
   530  Cl    c     7.438150   -8.916380   17.860806    0.000000    1.485000
   531  Cl    c   -14.871217    3.632650   11.412115    0.000000    1.485000
   532  Sc    c   -15.739327   -5.451414    6.453607    0.000000    3.000000
   533  Sc    c     9.443970    9.088130    6.454809    0.000000    3.000000
   534  Cl    c    -8.574149  -10.902212   -1.493119    0.000000    1.485000
   535  Cl    c    -5.146698   12.552115   11.406608    0.000000    1.485000
   536  Cl    c    10.583299   -3.476012   -1.493927    0.000000    1.485000
   537  Cl    c     1.145949  -16.185945   11.406222    0.000000    1.485000
   538  Cl    c    -8.574450  -14.530342    4.962406    0.000000    1.485000
   539  Sc    c    -0.000367  -14.537599   -0.001318    0.000000    3.000000
   540  Sc    c     9.443867   -9.085889   -0.000924    0.000000    3.000000
   541  Cl    c    13.724707   -1.656770    4.962588    0.000000    1.485000
   542  Cl    c    -5.154255  -12.877675   -1.492678    0.000000    1.485000
   543  Cl    c     1.142014  -12.879319   17.863340    0.000000    1.485000
   544  Cl    c   -14.869503   -7.265318   11.413086    0.000000    1.485000
   545  Cl    c    -8.294432    7.431446   17.862112    0.000000    1.485000
   546  Cl    c   -11.447972    9.245278    4.954820    0.000000    1.485000
   547  Cl    c    -5.429198   12.720984    4.954952    0.000000    1.485000
   548  Cl    c    10.583311  -10.736963   11.409342    0.000000    1.485000
   549  Cl    c    10.294111    0.000937   17.860670    0.000000    1.485000
   550  Cl    c   -11.439987  -12.549907    4.952273    0.000000    1.485000
   551  Cl    c    13.441483    1.816316    4.952243    0.000000    1.485000
   552  Cl    c    -8.297303  -14.696130   11.410739    0.000000    1.485000
   553  Sc    c   -12.590271    7.269135   12.906475    0.000000    3.000000
   554  Sc    c    -6.294749    0.000085   -6.456455    0.000000    3.000000
   555  Sc    c    -3.146445   12.720760   12.906730    0.000000    3.000000
   556  Cl    c     1.140896  -16.509196    4.960937    0.000000    1.485000
   557  Cl    c    10.579311  -11.059917    4.960946    0.000000    1.485000
   558  Sc    c    -6.294619   -3.634029   -6.457786    0.000000    3.000000
   559  Sc    c     3.147928    1.817277   -6.457933    0.000000    3.000000
   560  Sc    c    -6.293971    7.268650   19.362021    0.000000    3.000000
   561  Sc    c     3.148339  -16.359942    6.452649    0.000000    3.000000
   562  Sc    c     6.294998   10.904463   12.908103    0.000000    3.000000
   563  Sc    c     9.447139  -12.723364    6.453888    0.000000    3.000000
   564  Cl    c   -11.723311    9.083336   11.412022    0.000000    1.485000
   565  Sc    c     3.148073   -5.451482   -6.456395    0.000000    3.000000
   566  Cl    c    -5.146562  -16.185626   11.406807    0.000000    1.485000
   567  Cl    c    -8.580324  -10.898817   17.863372    0.000000    1.485000
   568  Cl    c    10.583766   -3.468001   17.862131    0.000000    1.485000
   569  Cl    c    -7.159892   12.718167    7.947415    0.000000    1.485000
   570  Cl    c   -10.581831   10.743677    7.947333    0.000000    1.485000
   571  Sc    c   -12.591050  -10.903431   12.908497    0.000000    3.000000
   572  Cl    c   -13.439787    5.449687    1.500723    0.000000    1.485000
   573  Cl    c    -5.150589  -12.880119   17.862657    0.000000    1.485000
   574  Cl    c   -16.597319   -3.641617    7.958317    0.000000    1.485000
   575  Cl    c     8.304728   10.736465    7.958300    0.000000    1.485000
   576  Cl    c    -1.144144   12.552192   14.403291    0.000000    1.485000
   577  Sc    c     9.442074   -1.816490   19.360855    0.000000    3.000000
   578  Cl    c    13.728522    1.653234   11.410183    0.000000    1.485000
   579  Sc    c    -9.443987    9.087421   -0.003235    0.000000    3.000000
   580  Sc    c    -3.146776  -16.354160   12.907702    0.000000    3.000000
   581  Cl    c    -2.282565   10.900880   -1.494609    0.000000    1.485000
   582  Cl    c    -5.153345  -16.511124    4.958358    0.000000    1.485000
   583  Cl    c    13.728084   -5.609931    4.958366    0.000000    1.485000
   584  Cl    c   -11.442683   -8.920201   -1.499825    0.000000    1.485000
   585  Cl    c   -11.723381  -12.715733   11.412158    0.000000    1.485000
   586  Sc    c     6.295001  -14.538183   12.906822    0.000000    3.000000
   587  Cl    c    13.729120   -5.287673   11.410385    0.000000    1.485000
   588  Cl    c   -16.883262   -0.165400    7.956673    0.000000    1.485000
   589  Cl    c     5.437945   12.720820    7.956554    0.000000    1.485000
   590  Sc    c   -15.738322    1.818143   12.907016    0.000000    3.000000
   591  Sc    c     3.148602   12.721078   12.906774    0.000000    3.000000
   592  Cl    c   -11.719893    5.450603   -1.492229    0.000000    1.485000
   593  Sc    c    -3.147050    9.086272   19.361282    0.000000    3.000000
   594  Cl    c   -10.305097  -14.538129    7.951139    0.000000    1.485000
   595  Cl    c    14.595400   -0.160967    7.951228    0.000000    1.485000
   596  Cl    c    -4.294548    7.095353   -4.951123    0.000000    1.485000
   597  Cl    c    -1.140161   12.874240    1.492275    0.000000    1.485000
   598  Cl    c     1.997536    7.094069   -4.950143    0.000000    1.485000
   599  Cl    c    -2.002578  -14.372632   -1.498477    0.000000    1.485000
   600  Cl    c   -13.729010   -8.919183    1.496486    0.000000    1.485000
   601  Sc    c   -15.738234   -5.451959   12.908504    0.000000    3.000000
   602  Cl    c    10.578833    3.474289   -1.491661    0.000000    1.485000
   603  Cl    c   -13.724875    5.606026   14.396462    0.000000    1.485000
   604  Cl    c    11.440059   -8.912565    1.501870    0.000000    1.485000
   605  Cl    c    11.443918    5.609717   14.397597    0.000000    1.485000
   606  Sc    c    -9.441896  -12.721534   -0.002651    0.000000    3.000000
   607  Cl    c    -7.156317    5.450915   20.855085    0.000000    1.485000
   608  Cl    c   -10.302390    0.000156   20.855977    0.000000    1.485000
   609  Cl    c    -1.143874  -16.185219   14.403331    0.000000    1.485000
   610  Cl    c    -2.004572    0.158314   -7.949088    0.000000    1.485000
   611  Cl    c     0.864271   -1.817192   -7.949345    0.000000    1.485000
   612  Sc    c    -6.295644  -14.537911   -0.001244    0.000000    3.000000
   613  Sc    c    12.591697   -3.635092   -0.001730    0.000000    3.000000
   614  Sc    c    -9.442738   -9.085790   19.362826    0.000000    3.000000
   615  Sc    c     9.442605    1.817482   19.362382    0.000000    3.000000
   616  Cl    s    -1.764956   -0.575965    5.457864    0.000000   -2.485000
   617  Cl    s    -3.715271   -3.657537    7.686632    0.000000   -2.485000
   618  Cl    s     1.879236   -0.429251    7.690154    0.000000   -2.485000
   619  Cl    s    -4.406560   -0.396136    7.473095    0.000000   -2.485000
   620  Cl    s    -0.600501    1.800509    7.476172    0.000000   -2.485000
   621  Cl    s    -2.523558   -3.742547    5.068885    0.000000   -2.485000
   622  Cl    s     1.355289   -1.504498    5.072903    0.000000   -2.485000
   623  Cl    s    -1.147140   -5.751551    7.647548    0.000000   -2.485000
   624  Cl    s     2.408105   -3.700741    7.649223    0.000000   -2.485000
   625  Cl    s     0.698943   -1.816023   11.609506    0.000000   -2.485000
   626  Cl    s    -1.926767    0.288269   11.611308    0.000000   -2.485000
   627  Cl    s    -1.933734   -3.920776   11.621946    0.000000   -2.485000
   628  Cl    s    -5.305610   -1.492742    4.922508    0.000000   -2.485000
   629  Cl    s     0.799878    2.028866    4.925971    0.000000   -2.485000
   630  Cl    s     1.216808    1.518516   11.615852    0.000000   -2.485000
   631  Cl    s     1.242712   -5.786280    5.150641    0.000000   -2.485000
   632  Cl    s     1.214693   -5.156783   11.620892    0.000000   -2.485000
   633  Cl    s    -5.576008   -1.818493   11.617471    0.000000   -2.485000
   634  Cl    s    -1.901702   -7.063151    5.159151    0.000000   -2.485000
   635  Cl    s     3.920869   -3.701612    5.160443    0.000000   -2.485000
   636  Cl    s     1.966621   -7.040776    7.683561    0.000000   -2.485000
   637  Cl    s    -5.617232    1.852631    5.106985    0.000000   -2.485000
   638  Cl    s    -1.941614    3.972908    5.107717    0.000000   -2.485000
   639  Cl    s    -4.353709   -7.018182    7.746417    0.000000   -2.485000
   640  Cl    s     5.109011   -1.556131    7.747896    0.000000   -2.485000
   641  Cl    s    -5.072257    1.517832   11.607422    0.000000   -2.485000
   642  Cl    s    -5.086719   -5.716837    5.252484    0.000000   -2.485000
   643  Cl    s     4.346801   -0.270988    5.254286    0.000000   -2.485000
   644  Cl    s    -0.728641   -1.817024   14.148380    0.000000   -2.485000
   645  Cl    s    -7.502247   -1.538683    7.590798    0.000000   -2.485000
   646  Cl    s     1.937517    3.910805    7.592033    0.000000   -2.485000
[...]
    992 z         11.642631     11.643818     0.001187    Cartesian    0.01
    993 x          4.358393      4.357463    -0.000929    Cartesian   -0.02
    993 y          7.548435      7.547197    -0.001238    Cartesian   -0.02
    993 z         18.095518     18.093630    -0.001887    Cartesian   -0.01
    994 x          1.211121      1.208378    -0.002743    Cartesian   -0.23
    994 y        -12.999146    -12.994853     0.004293    Cartesian   -0.03
    994 z         -1.263142     -1.259868     0.003275    Cartesian   -0.26
    995 x          5.082063      5.077591    -0.004472    Cartesian   -0.09
    995 y          1.535648      1.530936    -0.004711    Cartesian   -0.31
    995 z         -5.189744     -5.185109     0.004635    Cartesian   -0.09
    996 x          7.017760      7.011666    -0.006095    Cartesian   -0.09
    996 y          5.450711      5.449457    -0.001254    Cartesian   -0.02
    996 z         18.095518     18.091359    -0.004159    Cartesian   -0.02
    997 x         -7.505211     -7.505109     0.000103    Cartesian   -0.00
    997 y          1.535648      1.531669    -0.003979    Cartesian   -0.26
    997 z         -5.189744     -5.186247     0.003498    Cartesian   -0.07
    998 x          5.569514      5.565765    -0.003750    Cartesian   -0.07
    998 y         -5.450711     -5.449729     0.000982    Cartesian   -0.02
    998 z         20.621802     20.619796    -0.002006    Cartesian   -0.01
    999 x        -11.375700    -11.371876     0.003824    Cartesian   -0.03
    999 y          2.097985      2.100155     0.002169    Cartesian    0.10
    999 z         18.095518     18.092431    -0.003087    Cartesian   -0.02
   1000 x          5.082516      5.077951    -0.004565    Cartesian   -0.09
   1000 y         -5.169020     -5.163372     0.005647    Cartesian   -0.11
   1000 z         -5.189744     -5.184938     0.004807    Cartesian   -0.09
   1001 x          1.935244      1.935008    -0.000236    Cartesian   -0.01
   1001 y        -14.815701    -14.809251     0.006450    Cartesian   -0.04
   1001 z         14.168915     14.163812    -0.005103    Cartesian   -0.04
   1002 x         -4.358393     -4.356271     0.002122    Cartesian   -0.05
   1002 y        -14.815701    -14.811292     0.004409    Cartesian   -0.03
   1002 z         14.168915     14.165232    -0.003683    Cartesian   -0.03
   1003 x         13.311397     13.306162    -0.005235    Cartesian   -0.04
   1003 y         -1.816555     -1.817069    -0.000514    Cartesian    0.03
   1003 z         11.642631     11.639508    -0.003123    Cartesian   -0.03
   1004 x         -7.504758     -7.504795    -0.000036    Cartesian    0.00
   1004 y         -5.169020     -5.164420     0.004600    Cartesian   -0.09
   1004 z         -5.189744     -5.186008     0.003736    Cartesian   -0.07
   1005 x         -1.211121     -1.212327    -0.001205    Cartesian    0.10
   1005 y          5.731880      5.731658    -0.000222    Cartesian   -0.00
   1005 z         -5.189744     -5.186408     0.003336    Cartesian   -0.06
   1006 x         -1.211574     -1.211052     0.000522    Cartesian   -0.04
   1006 y        -16.632518    -16.625479     0.007038    Cartesian   -0.04
   1006 z          7.716029      7.712202    -0.003827    Cartesian   -0.05
   1007 x         11.863151     11.856764    -0.006387    Cartesian   -0.05
   1007 y         -9.084344     -9.081297     0.003047    Cartesian   -0.03
   1007 z          7.716029      7.712233    -0.003795    Cartesian   -0.05
   1008 x         10.652030     10.649334    -0.002696    Cartesian   -0.03
   1008 y         -3.352464     -3.355996    -0.003531    Cartesian    0.11
   1008 z         -1.263142     -1.260750     0.002392    Cartesian   -0.19
   1009 x         -8.716333     -8.711031     0.005302    Cartesian   -0.06
   1009 y        -10.900638    -10.900153     0.000484    Cartesian   -0.00
   1009 z         -1.263142     -1.260218     0.002924    Cartesian   -0.23
   1010 x         -5.082516     -5.079160     0.003355    Cartesian   -0.07
   1010 y         12.436286     12.433720    -0.002565    Cartesian   -0.02
   1010 z         11.642631     11.639274    -0.003357    Cartesian   -0.03
   1011 x          8.716333      8.712646    -0.003687    Cartesian   -0.04
   1011 y        -10.901161    -10.898410     0.002750    Cartesian   -0.03
   1011 z          1.263142      1.262213    -0.000929    Cartesian   -0.07
   1012 x         10.651577     10.649511    -0.002066    Cartesian   -0.02
   1012 y          6.985836      6.985353    -0.000483    Cartesian   -0.01
   1012 z         11.642631     11.639828    -0.002803    Cartesian   -0.02
   1013 x         -8.228881     -8.226997     0.001884    Cartesian   -0.02
   1013 y         11.182068     11.180182    -0.001886    Cartesian   -0.02
   1013 z         11.642631     11.641450    -0.001181    Cartesian   -0.01
   1014 x         -5.082516     -5.079326     0.003190    Cartesian   -0.06
   1014 y          8.802653      8.797956    -0.004697    Cartesian   -0.05
   1014 z         18.095518     18.092731    -0.002787    Cartesian   -0.02
   1015 x         11.863151     11.859076    -0.004075    Cartesian   -0.03
   1015 y         -5.450711     -5.448554     0.002157    Cartesian   -0.04
   1015 z          1.263142      1.261562    -0.001580    Cartesian   -0.13
   1016 x          1.211574      1.212652     0.001078    Cartesian    0.09
   1016 y        -16.070180    -16.067047     0.003133    Cartesian   -0.02
   1016 z         11.642631     11.638946    -0.003685    Cartesian   -0.03
   1017 x        -11.375700    -11.371967     0.003733    Cartesian   -0.03
   1017 y        -12.436547    -12.431972     0.004575    Cartesian   -0.04
   1017 z          5.189744      5.187049    -0.002695    Cartesian   -0.05
   1018 x         -5.082516     -5.084240    -0.001724    Cartesian    0.03
   1018 y        -12.999146    -12.995127     0.004019    Cartesian   -0.03
   1018 z         -1.263142     -1.259867     0.003275    Cartesian   -0.26
   1019 x         13.311397     13.305334    -0.006063    Cartesian   -0.05
   1019 y          1.817078      1.816018    -0.001060    Cartesian   -0.06
   1019 z          5.189744      5.187051    -0.002694    Cartesian   -0.05
   1020 x          7.505211      7.504998    -0.000213    Cartesian   -0.00
   1020 y         -8.802914     -8.798593     0.004321    Cartesian   -0.05
   1020 z         18.095518     18.092663    -0.002855    Cartesian   -0.02
   1021 x         -8.716333     -8.711308     0.005024    Cartesian   -0.06
   1021 y        -14.534271    -14.528534     0.005737    Cartesian   -0.04
   1021 z          5.189744      5.194859     0.005114    Cartesian    0.10
   1022 x         -1.211574     -1.211925    -0.000351    Cartesian    0.03
   1022 y         -9.365251     -9.363731     0.001521    Cartesian   -0.02
   1022 z         -5.189744     -5.186930     0.002814    Cartesian   -0.05
   1023 x         13.798849     13.791211    -0.007638    Cartesian   -0.06
   1023 y         -1.535648     -1.537163    -0.001515    Cartesian    0.10
   1023 z          5.189744      5.195013     0.005268    Cartesian    0.10
   1024 x        -11.375700    -11.377140    -0.001440    Cartesian    0.01
   1024 y          9.365251      9.362709    -0.002543    Cartesian   -0.03
   1024 z          5.189744      5.188212    -0.001532    Cartesian   -0.03
   1025 x         -5.569514     -5.566294     0.003220    Cartesian   -0.06
   1025 y         12.717977     12.717924    -0.000053    Cartesian   -0.00
   1025 z          5.189744      5.188303    -0.001442    Cartesian   -0.03
   1026 x        -11.863151    -11.861057     0.002094    Cartesian   -0.02
   1026 y         -5.450188     -5.449399     0.000790    Cartesian   -0.01
   1026 z         18.095518     18.093832    -0.001686    Cartesian   -0.01
   1027 x        -15.009970    -15.006721     0.003249    Cartesian   -0.02
   1027 y          3.633895      3.632166    -0.001729    Cartesian   -0.05
   1027 z         11.642631     11.643221     0.000590    Cartesian    0.01
   1028 x         10.652030     10.649582    -0.002448    Cartesian   -0.02
   1028 y        -10.619731    -10.617991     0.001739    Cartesian   -0.02
   1028 z         11.642631     11.641829    -0.000803    Cartesian   -0.01
   1029 x         10.164579     10.158812    -0.005767    Cartesian   -0.06
   1029 y          0.000261      0.000770     0.000508    Cartesian  194.30
   1029 z         18.095518     18.092715    -0.002802    Cartesian   -0.02
   1030 x         -1.211574     -1.211534     0.000040    Cartesian   -0.00
   1030 y         12.436547     12.433339    -0.003208    Cartesian   -0.03
   1030 z         14.168915     14.168719    -0.000197    Cartesian   -0.00
   1031 x        -15.009970    -15.005365     0.004605    Cartesian   -0.03
   1031 y         -7.267005     -7.265152     0.001853    Cartesian   -0.03
   1031 z         11.642631     11.644210     0.001579    Cartesian    0.01
   1032 x        -16.458216    -16.460116    -0.001900    Cartesian    0.01
   1032 y         -3.633895     -3.639736    -0.005842    Cartesian    0.16
   1032 z          7.716029      7.723484     0.007455    Cartesian    0.10
   1033 x         -8.229334     -8.228030     0.001305    Cartesian   -0.02
   1033 y        -14.815962    -14.812979     0.002984    Cartesian   -0.02
   1033 z         11.642631     11.642417    -0.000214    Cartesian   -0.00
   1034 x         -8.228881     -8.226331     0.002550    Cartesian   -0.03
   1034 y          7.548435      7.548495     0.000060    Cartesian    0.00
   1034 z         18.095518     18.093453    -0.002065    Cartesian   -0.01
   1035 x          8.228881      8.234833     0.005952    Cartesian    0.07
   1035 y         10.619731     10.618391    -0.001339    Cartesian   -0.01
   1035 z          7.716029      7.723481     0.007452    Cartesian    0.10
   1036 x         -5.082063     -5.079332     0.002731    Cartesian   -0.05
   1036 y        -16.070180    -16.067079     0.003101    Cartesian   -0.02
   1036 z         11.642631     11.639726    -0.002905    Cartesian   -0.02
   1037 x          1.211121      1.209673    -0.001448    Cartesian   -0.12
   1037 y        -16.632779    -16.626951     0.005828    Cartesian   -0.04
   1037 z          5.189744      5.192896     0.003152    Cartesian    0.06
   1038 x         10.651577     10.647279    -0.004298    Cartesian   -0.04
   1038 y        -11.182329    -11.178174     0.004156    Cartesian   -0.04
   1038 z          5.189744      5.192875     0.003131    Cartesian    0.06
   1039 x          1.211121      1.210183    -0.000938    Cartesian   -0.08
   1039 y        -12.999146    -12.996456     0.002690    Cartesian   -0.02
   1039 z         18.095518     18.094274    -0.001243    Cartesian   -0.01
   1040 x        -11.375700    -11.373539     0.002161    Cartesian   -0.02
   1040 y         -8.802914     -8.801929     0.000986    Cartesian   -0.01
   1040 z         -1.263142     -1.265190    -0.002048    Cartesian    0.16
   1041 x        -10.652030    -10.647984     0.004046    Cartesian   -0.04
   1041 y         10.619731     10.623128     0.003397    Cartesian    0.03
   1041 z          7.716029      7.713160    -0.002868    Cartesian   -0.04
   1042 x         -7.017760     -7.022423    -0.004663    Cartesian    0.07
   1042 y         12.717454     12.715591    -0.001863    Cartesian   -0.01
   1042 z          7.716029      7.713250    -0.002779    Cartesian   -0.04
   1043 x        -13.311397    -13.303757     0.007640    Cartesian   -0.06
   1043 y          5.450188      5.448676    -0.001513    Cartesian   -0.03
   1043 z          1.263142      1.267676     0.004534    Cartesian    0.36
   1044 x         -2.422696     -2.419789     0.002906    Cartesian   -0.12
   1044 y         10.901161     10.897757    -0.003404    Cartesian   -0.03
   1044 z         -1.263142     -1.260931     0.002211    Cartesian   -0.18
   1045 x        -11.863151    -11.859184     0.003967    Cartesian   -0.03
   1045 y          9.084344      9.082071    -0.002273    Cartesian   -0.03
   1045 z         11.642631     11.643367     0.000736    Cartesian    0.01
   1046 x         -1.935244     -1.935322    -0.000078    Cartesian    0.00
   1046 y        -14.253364    -14.253176     0.000188    Cartesian   -0.00
   1046 z         -1.263142     -1.264011    -0.000869    Cartesian    0.07
   1047 x        -10.164579    -10.164960    -0.000381    Cartesian    0.00
   1047 y         -0.000261      0.000135     0.000397    Cartesian -151.71
   1047 z         20.621802     20.621715    -0.000087    Cartesian   -0.00
   1048 x         -7.017760     -7.019091    -0.001331    Cartesian    0.02
   1048 y          5.450188      5.450076    -0.000113    Cartesian   -0.00
   1048 z         20.621802     20.621137    -0.000665    Cartesian   -0.00
   1049 x         10.652030     10.650682    -0.001348    Cartesian   -0.01
   1049 y         -3.352464     -3.350214     0.002250    Cartesian   -0.07
   1049 z         18.095518     18.093670    -0.001848    Cartesian   -0.01
   1050 x          0.724123      0.726780     0.002657    Cartesian    0.37
   1050 y         -1.816555     -1.817120    -0.000565    Cartesian    0.03
   1050 z         -7.716029     -7.715035     0.000993    Cartesian   -0.01
   1051 x         -8.716333     -8.715944     0.000388    Cartesian   -0.00
   1051 y        -10.900638    -10.898583     0.002055    Cartesian   -0.02
   1051 z         18.095518     18.094572    -0.000946    Cartesian   -0.01
   1052 x        -10.164579    -10.167591    -0.003012    Cartesian    0.03
   1052 y        -14.534794    -14.534827    -0.000033    Cartesian    0.00
   1052 z          7.716029      7.717420     0.001392    Cartesian    0.02
   1053 x         -1.935244     -1.936010    -0.000766    Cartesian    0.04
   1053 y          0.281169      0.277273    -0.003896    Cartesian   -1.39
   1053 z         -7.716029     -7.715045     0.000984    Cartesian   -0.01
   1054 x         14.522519     14.524092     0.001573    Cartesian    0.01
   1054 y         -0.281169     -0.278593     0.002576    Cartesian   -0.92
   1054 z          7.716029      7.717529     0.001501    Cartesian    0.02
   1055 x         13.798396     13.795159    -0.003237    Cartesian   -0.02
   1055 y          1.535386      1.534707    -0.000679    Cartesian   -0.04
   1055 z         11.642631     11.642119    -0.000512    Cartesian   -0.00
   1056 x         -5.082516     -5.083947    -0.001431    Cartesian    0.03
   1056 y        -16.632779    -16.628272     0.004507    Cartesian   -0.03
   1056 z          5.189744      5.190932     0.001187    Cartesian    0.02
   1057 x         13.798396     13.795188    -0.003207    Cartesian   -0.02
   1057 y         -5.731880     -5.728431     0.003449    Cartesian   -0.06
   1057 z          5.189744      5.190941     0.001196    Cartesian    0.02
   1058 x         -1.211121     -1.211724    -0.000602    Cartesian    0.05
   1058 y        -16.069919    -16.066526     0.003393    Cartesian   -0.02
   1058 z         14.168915     14.168967     0.000052    Cartesian    0.00
   1059 x         10.651577     10.645563    -0.006014    Cartesian   -0.06
   1059 y          3.352203      3.354200     0.001997    Cartesian    0.06
   1059 z         -1.263142     -1.258211     0.004931    Cartesian   -0.39
   1060 x        -11.863151    -11.856509     0.006642    Cartesian   -0.06
   1060 y          5.450711      5.448907    -0.001804    Cartesian   -0.03
   1060 z         -1.263142     -1.259087     0.004055    Cartesian   -0.32
   1061 x         -5.082516     -5.081870     0.000646    Cartesian   -0.01
   1061 y        -12.999146    -12.996931     0.002215    Cartesian   -0.02
   1061 z         18.095518     18.093725    -0.001793    Cartesian   -0.01
   1062 x         13.798849     13.795339    -0.003509    Cartesian   -0.03
   1062 y         -5.169281     -5.168821     0.000460    Cartesian   -0.01
   1062 z         11.642631     11.642502    -0.000129    Cartesian   -0.00
   1063 x         11.376153     11.373427    -0.002726    Cartesian   -0.02
   1063 y          5.731880      5.727325    -0.004555    Cartesian   -0.08
   1063 z         14.168915     14.164030    -0.004886    Cartesian   -0.03
   1064 x        -16.945667    -16.948689    -0.003022    Cartesian    0.02
   1064 y         -0.281169     -0.284472    -0.003303    Cartesian    1.17
   1064 z          7.716029      7.722697     0.006668    Cartesian    0.09
   1065 x          5.569514      5.573807     0.004292    Cartesian    0.08
   1065 y         12.717454     12.718354     0.000899    Cartesian    0.01
   1065 z          7.716029      7.722584     0.006555    Cartesian    0.08
   1066 x        -11.863151    -11.859424     0.003728    Cartesian   -0.03
   1066 y        -12.717454    -12.714798     0.002657    Cartesian   -0.02
   1066 z         11.642631     11.643680     0.001049    Cartesian    0.01
   1067 x         11.376153     11.371064    -0.005089    Cartesian   -0.04
   1067 y         -8.802653     -8.795712     0.006941    Cartesian   -0.08
   1067 z          1.263142      1.268396     0.005254    Cartesian    0.42
   1068 x        -13.798396    -13.792446     0.005949    Cartesian   -0.04
   1068 y          5.731880      5.725318    -0.006562    Cartesian   -0.11
   1068 z         14.168915     14.163847    -0.005068    Cartesian   -0.04
   1069 x          1.935244      1.930320    -0.004924    Cartesian   -0.25
   1069 y          6.986098      6.976999    -0.009099    Cartesian   -0.13
   1069 z         -5.189744     -5.182076     0.007668    Cartesian   -0.15
   1070 x        -13.798396    -13.795267     0.003128    Cartesian   -0.02
   1070 y         -8.802653     -8.800408     0.002244    Cartesian   -0.03
   1070 z          1.263142      1.264118     0.000976    Cartesian    0.08
   1071 x         -4.358393     -4.361053    -0.002661    Cartesian    0.06
   1071 y          6.986098      6.977934    -0.008163    Cartesian   -0.12
   1071 z         -5.189744     -5.182906     0.006839    Cartesian   -0.13
   1072 x         -1.211121     -1.209459     0.001662    Cartesian   -0.14
   1072 y         12.999146     12.991088    -0.008058    Cartesian   -0.06
   1072 z          1.263142      1.261449    -0.001694    Cartesian   -0.13
--------------------------------------------------------------------------------


  Time to end of optimisation  =      295.1331 seconds


  Peak dynamic memory used =     169.87 MB 


  Timing analysis for GULP :

--------------------------------------------------------------------------------
  Task / Subroutine                                          Time (Seconds)
--------------------------------------------------------------------------------
  Calculation of reciprocal space energy and derivatives          0.0023
  Calculation of reciprocal space energy using symmetry           0.0272
  Calculation of real space energy and derivatives                0.0144
  Calculation of real space energy using symmetry                 0.4117
  Calculation for region 1 energy and derivatives (2-b)         107.8931
  Calculation for region 2a energy                               94.7500
  Calculation for region 2b energy                                0.0165
  Calculation and manipulation of Hessian matrix                  0.0565
  Calculation of matrix inversion                                89.9048
  Symmetry generation of equivalent positions                     0.0011
  Global summation overhead                                       0.0002
--------------------------------------------------------------------------------
  Total CPU time                                                295.1331
--------------------------------------------------------------------------------


  Dump file written as ScCl3.grs



  **** GULP has completed with   2 warnings - beware! ****

  Job Finished at 11:37.51 18th August     2021                               

