********************************************************************************
*                       GENERAL UTILITY LATTICE PROGRAM                        *
*                                 Julian Gale                                  *
*                       Curtin Institute for Computation                       *
*                    School of Molecular and Life Sciences                     *
*                    Curtin University, Western Australia                      *
********************************************************************************
* Version = 5.2.0 * Last modified =  10th September 2020                       *
********************************************************************************
*  optimise     - perform optimisation run                                     *
*  conp         - constant pressure calculation                                *
*  property     - calculate properties for final geometry                      *
*  defect       - perform defect calculation after bulk run                    *
*  compare      - compare initial and final structures                         *
********************************************************************************

  Job Started  at 11:32.55 18th August     2021                               

  Number of CPUs =     1


  Total number of configurations input =      1

********************************************************************************
*  Input for Configuration =   1                                               *
********************************************************************************

  Formula = Sc2Cl6                                                      

  Number of irreducible atoms/shells =       3


  Total number atoms/shells =      14

  Dimensionality = 3               :  Bulk   


  Symmetry :

  Crystal family                   :  Hexagonal   
  Crystal class  (Groth - 1921)    :  Trigonal Rhombohedral                

  Space group (centrosymmetric)    :  R -3            

  Patterson group                  :  R -3     

  Cartesian lattice vectors (Angstroms) :

        3.246588    1.874418    6.441540
       -3.246588    1.874418    6.441540
        0.000000   -3.748837    6.441540

  Cell parameters (Angstroms/Degrees):

  a =       7.4530    alpha =  51.6480
  b =       7.4530    beta  =  51.6480
  c =       7.4530    gamma =  51.6480

  Initial cell volume =         235.198534 Angs**3

  Temperature of configuration =   0.00     K 

  Pressure of configuration =         0.000 GPa 

  Fractional coordinates of asymmetric unit :

--------------------------------------------------------------------------------
   No.  Atomic       x           y          z         Charge      Occupancy
        Label      (Frac)      (Frac)     (Frac)        (e)         (Frac)  
--------------------------------------------------------------------------------
      1 Sc    c    0.333900    0.333900    0.333900 *   3.00000    1.000000    
      2 Cl    c    0.073700 *  0.443900 *  0.705300 *   1.48500    1.000000    
      3 Cl    s    0.073700 *  0.443900 *  0.705300 *  -2.48500    1.000000    
--------------------------------------------------------------------------------


  Constraints : 

--------------------------------------------------------------------------------
  Constraint no.      Unconstrained     Constrained    Coefficient    Offset
                         Variable         Variable
--------------------------------------------------------------------------------
           1              Strain 1        Strain 2       1.00000      0.0000
--------------------------------------------------------------------------------


********************************************************************************
*  General input information                                                   *
********************************************************************************

  Species output for all configurations : 

--------------------------------------------------------------------------------
  Species    Type    Atomic    Atomic    Charge       Radii (Angs)     Library
                     Number     Mass       (e)     Cova   Ionic  VDW   Symbol
--------------------------------------------------------------------------------
    Sc       Core       21      44.96   3.000000   1.440  0.000  2.150          
    Cl       Core       17      35.45   1.485000   0.990  0.000  1.650          
    Cl       Shell      17       0.00  -2.485000   0.990  0.000  1.650          
--------------------------------------------------------------------------------


  Lattice summation method               =    Ewald          (3-D)
                                         =    Parry          (2-D)
                                         =    Saunders et al (1-D)
  Accuracy factor for lattice sums       =   12.000


  Analytic derivatives to be used

  Time limit = Infinity

  Maximum range for interatomic potentials =    100000.000000 Angstroms

  General interatomic potentials :

--------------------------------------------------------------------------------
Atom  Types   Potential      Parameter       Value         Units   Cutoffs(Ang)
  1     2                                                            Min /  Max 
--------------------------------------------------------------------------------
Cl   c Cl   s Spring (c-s)  Spring k 2       29.380000    eV*Ang^-2 0.000  0.800
                            Spring k 4       0.0000000    eV*Ang^-4 
--------------------------------------------------------------------------------
Sc   c Cl   s Buckingham    Buckingham A     12131.350    eV        0.000 12.000
                            Buckingham rho  0.25070000    Ang       
                            Buckingham C     0.0000000    eV*Ang^6  
--------------------------------------------------------------------------------
Cl   s Cl   s Buckingham    Buckingham A     1227.2000    eV        0.000 12.000
                            Buckingham rho  0.32100000    Ang       
                            Buckingham C     14.530000    eV*Ang^6  
--------------------------------------------------------------------------------

********************************************************************************
*  Output for configuration   1                                                *
********************************************************************************


  Components of energy : 

--------------------------------------------------------------------------------
  Interatomic potentials     =           6.77737779 eV    
  Monopole - monopole (real) =         -30.86300284 eV    
  Monopole - monopole (recip)=         -65.52201623 eV    
  Monopole - monopole (total)=         -96.38501907 eV    
--------------------------------------------------------------------------------
  Total lattice energy : 
    Primitive unit cell      =         -89.60764128 eV    
    Non-primitive unit cell  =        -268.82292384 eV    
--------------------------------------------------------------------------------
  Total lattice energy (in kJmol-1): 
    Primitive unit cell      =           -8645.7676 kJ/(mole unit cells)
    Non-primitive unit cell  =          -25937.3028 kJ/(mole unit cells)
--------------------------------------------------------------------------------


  Number of variables =        9

  Maximum number of calculations  =          1000
  Maximum Hessian update interval =            10
  Maximum step size               =   1.000000000
  Maximum parameter tolerance     =   0.000010000
  Maximum function  tolerance     =   0.000010000
  Maximum gradient  tolerance     =   0.001000000
  Maximum gradient  component     =   0.010000000

  Symmetry constrained optimisation

  Symmetry used for second derivatives

  Cell parameters to be optimised using strains

  Newton-Raphson optimiser to be used

  BFGS hessian update to be used

  Lower half triangular hessian to be used

  Start of bulk optimisation :

  Cycle:      0 Energy:       -89.607641  Gnorm:    194.660938  CPU:    0.009
  ** Hessian calculated **
  Cycle:      1 Energy:       -99.336245  Gnorm:     16.922396  CPU:    0.017
  Cycle:      2 Energy:       -99.561570  Gnorm:      7.561347  CPU:    0.027
  Cycle:      3 Energy:       -99.729576  Gnorm:      4.412393  CPU:    0.037
  Cycle:      4 Energy:       -99.829400  Gnorm:      2.218678  CPU:    0.048
  Cycle:      5 Energy:       -99.844572  Gnorm:      0.723795  CPU:    0.057
  Cycle:      6 Energy:       -99.846381  Gnorm:      0.448826  CPU:    0.067
  Cycle:      7 Energy:       -99.846853  Gnorm:      0.344817  CPU:    0.076
  Cycle:      8 Energy:       -99.849123  Gnorm:      0.319075  CPU:    0.091
  Cycle:      9 Energy:       -99.851112  Gnorm:      0.253552  CPU:    0.104
  Cycle:     10 Energy:       -99.852597  Gnorm:      0.161985  CPU:    0.116
  ** Hessian calculated **
  Cycle:     11 Energy:       -99.854095  Gnorm:      0.114649  CPU:    0.134
  Cycle:     12 Energy:       -99.855517  Gnorm:      0.062367  CPU:    0.147
  Cycle:     13 Energy:       -99.856271  Gnorm:      0.091299  CPU:    0.158
  Cycle:     14 Energy:       -99.856398  Gnorm:      0.057833  CPU:    0.171
  Cycle:     15 Energy:       -99.709969  Gnorm:      9.382415  CPU:    0.209
  ** Hessian calculated **
  Cycle:     16 Energy:       -99.834592  Gnorm:      3.493936  CPU:    0.226
  Cycle:     17 Energy:       -99.855984  Gnorm:      0.183406  CPU:    0.235
  Cycle:     18 Energy:       -99.856377  Gnorm:      0.024886  CPU:    0.246
  ** Hessian calculated **
  Cycle:     19 Energy:       -99.856378  Gnorm:      0.010051  CPU:    0.258
  Cycle:     20 Energy:       -99.856379  Gnorm:      0.013393  CPU:    0.267
  Cycle:     21 Energy:       -99.856379  Gnorm:      0.009613  CPU:    0.276
  Cycle:     22 Energy:       -99.856380  Gnorm:      0.011718  CPU:    0.285
  Cycle:     23 Energy:       -99.856381  Gnorm:      0.013744  CPU:    0.294
  Cycle:     24 Energy:       -99.856381  Gnorm:      0.012669  CPU:    0.303
  Cycle:     25 Energy:       -99.856382  Gnorm:      0.013916  CPU:    0.312
  Cycle:     26 Energy:       -99.856383  Gnorm:      0.012516  CPU:    0.321
  Cycle:     27 Energy:       -99.856383  Gnorm:      0.006850  CPU:    0.329
  Cycle:     28 Energy:       -99.856383  Gnorm:      0.005130  CPU:    0.337
  ** Hessian calculated **
  Cycle:     29 Energy:       -99.856383  Gnorm:      0.005098  CPU:    0.347
  Cycle:     30 Energy:       -99.856383  Gnorm:      0.005050  CPU:    0.355
  Cycle:     31 Energy:       -99.856384  Gnorm:      0.004978  CPU:    0.364
  Cycle:     32 Energy:       -99.856384  Gnorm:      0.004870  CPU:    0.373
  Cycle:     33 Energy:       -99.856385  Gnorm:      0.004708  CPU:    0.382
  Cycle:     34 Energy:       -99.856385  Gnorm:      0.004465  CPU:    0.391
  Cycle:     35 Energy:       -99.856387  Gnorm:      0.004100  CPU:    0.400
  Cycle:     36 Energy:       -99.856389  Gnorm:      0.003183  CPU:    0.411
  Cycle:     37 Energy:       -99.856390  Gnorm:      0.002732  CPU:    0.422
  Cycle:     38 Energy:       -99.856390  Gnorm:      0.002622  CPU:    0.433
  ** Hessian calculated **
  Cycle:     39 Energy:       -99.856390  Gnorm:      0.002617  CPU:    0.454
  Cycle:     40 Energy:       -99.856390  Gnorm:      0.002611  CPU:    0.469
  Cycle:     41 Energy:       -99.856390  Gnorm:      0.002596  CPU:    0.485
  Cycle:     42 Energy:       -99.856390  Gnorm:      0.002573  CPU:    0.500
  Cycle:     43 Energy:       -99.856391  Gnorm:      0.002556  CPU:    0.517
  Cycle:     44 Energy:       -99.856391  Gnorm:      0.002551  CPU:    0.526
  Cycle:     45 Energy:       -99.856376  Gnorm:      0.010367  CPU:    0.551
  ** Hessian calculated **
  Cycle:     46 Energy:       -99.856376  Gnorm:      0.003162  CPU:    0.564
  Cycle:     47 Energy:       -99.856376  Gnorm:      0.004154  CPU:    0.572
  Cycle:     48 Energy:       -99.856376  Gnorm:      0.004258  CPU:    0.581
  Cycle:     49 Energy:       -99.856376  Gnorm:      0.003063  CPU:    0.590
  Cycle:     50 Energy:       -99.856376  Gnorm:      0.003213  CPU:    0.599
  Cycle:     51 Energy:       -99.856376  Gnorm:      0.002448  CPU:    0.608
  Cycle:     52 Energy:       -99.856376  Gnorm:      0.002432  CPU:    0.617
  Cycle:     53 Energy:       -99.856376  Gnorm:      0.002202  CPU:    0.626
  Cycle:     54 Energy:       -99.856376  Gnorm:      0.003030  CPU:    0.635
  Cycle:     55 Energy:       -99.856377  Gnorm:      0.003988  CPU:    0.644
  ** Hessian calculated **
  Cycle:     56 Energy:       -99.856377  Gnorm:      0.003870  CPU:    0.656
  Cycle:     57 Energy:       -99.856377  Gnorm:      0.003694  CPU:    0.664
  Cycle:     58 Energy:       -99.856377  Gnorm:      0.003429  CPU:    0.673
  Cycle:     59 Energy:       -99.856377  Gnorm:      0.003032  CPU:    0.682
  Cycle:     60 Energy:       -99.856378  Gnorm:      0.002436  CPU:    0.690
  Cycle:     61 Energy:       -99.856378  Gnorm:      0.001545  CPU:    0.699


  **** Optimisation achieved ****


  Final energy =     -99.85637867 eV
  Final Gnorm  =       0.00022970

  Components of energy : 

--------------------------------------------------------------------------------
  Interatomic potentials     =          20.55356182 eV    
  Monopole - monopole (real) =          80.99460097 eV    
  Monopole - monopole (recip)=        -201.40454146 eV    
  Monopole - monopole (total)=        -120.40994049 eV    
--------------------------------------------------------------------------------
  Total lattice energy : 
    Primitive unit cell      =         -99.85637867 eV    
    Non-primitive unit cell  =        -299.56913600 eV    
--------------------------------------------------------------------------------
  Total lattice energy (in kJmol-1): 
    Primitive unit cell      =           -9634.6141 kJ/(mole unit cells)
    Non-primitive unit cell  =          -28903.8423 kJ/(mole unit cells)
--------------------------------------------------------------------------------

  Final asymmetric unit coordinates :

--------------------------------------------------------------------------------
   No.  Atomic        x           y           z         Radius
        Label       (Frac)      (Frac)      (Frac)       (Angs) 
--------------------------------------------------------------------------------
     1  Sc    c     0.333302    0.333302    0.333302    0.000000
     2  Cl    c     0.077345    0.440528    0.713912    0.000000
     3  Cl    s     0.065297    0.450169    0.680282    0.000000
--------------------------------------------------------------------------------

  Final Cartesian lattice vectors (Angstroms) :

        3.146819    1.816817    6.452887
       -3.146819    1.816817    6.452887
        0.000000   -3.633633    6.452887


  Final cell parameters and derivatives :

--------------------------------------------------------------------------------
       a            7.405608 Angstrom     dE/de1(xx)    -0.000123 eV/strain
       b            7.405608 Angstrom     dE/de2(yy)     0.000000 eV/strain
       c            7.405608 Angstrom     dE/de3(zz)    -0.000049 eV/strain
       alpha       50.291669 Degrees      dE/de4(yz)     0.000000 eV/strain
       beta        50.291669 Degrees      dE/de5(xz)     0.000000 eV/strain
       gamma       50.291669 Degrees      dE/de6(xy)     0.000000 eV/strain
--------------------------------------------------------------------------------

  Primitive cell volume =           221.354351 Angs**3

  Density of cell =      2.270208 g/cm**3

  Non-primitive lattice parameters :

  a    =     6.293637  b   =     6.293637  c    =    19.358660
  alpha=    90.000000  beta=    90.000000  gamma=   120.000000

  Non-primitive cell volume =           664.063053 Angs**3


  Final internal derivatives :

--------------------------------------------------------------------------------
   No.  Atomic          a             b             c           Radius
        Label          (eV)          (eV)          (eV)        (eV/Angs)
--------------------------------------------------------------------------------
      1 Sc    c       0.000000      0.000000      0.000333      0.000000
      2 Cl    c      -0.000512      0.000026      0.001871      0.000000
      3 Cl    s      -0.000302      0.000461     -0.000278      0.000000
--------------------------------------------------------------------------------
  Maximum abs         0.000512      0.000461      0.001871      0.000000
--------------------------------------------------------------------------------

  Comparison of initial and final structures : 

--------------------------------------------------------------------------------
  Parameter   Initial value   Final value   Difference    Units      Percent
--------------------------------------------------------------------------------
    Volume       705.595603    664.063053   -41.532550    Angs**3     -5.89
    a              6.493176      6.293637    -0.199538    Angstroms   -3.07
    b              6.493176      6.293637    -0.199538    Angstroms   -3.07
    c             19.324619     19.358660     0.034041    Angstroms    0.18
    alpha         90.000000     90.000000     0.000000    Degrees      0.00
    beta          90.000000     90.000000     0.000000    Degrees      0.00
    gamma        120.000000    120.000000     0.000000    Degrees      0.00
      1 x          0.000000      0.000000     0.000000    Fractional   0.00
      1 y          0.000000      0.000000     0.000000    Fractional   0.00
      1 z          0.333900      0.333302     0.000598    Fractional   0.18
      2 x          0.666067      0.666750     0.000683    Fractional   0.10
      2 y          0.702333      0.696683     0.005650    Fractional   0.80
      2 z          0.407633      0.410595     0.002962    Fractional   0.73
      3 x          0.666067      0.666715     0.000648    Fractional   0.10
      3 y          0.702333      0.718301     0.015968    Fractional   2.27
      3 z          0.407633      0.398583     0.009051    Fractional   2.22
--------------------------------------------------------------------------------


  Born effective charge tensors : 

-------------------------------------------------------------------------------
  Atom             x           y             z
-------------------------------------------------------------------------------
    1 Sc    x       1.8547     -0.0008      0.0000
            y       0.0008      1.8547      0.0000
            z       0.0000      0.0000      1.3341
-------------------------------------------------------------------------------
    2 Cl    x      -0.6622     -0.0739     -0.0054
            y      -0.0744     -0.5743      0.0077
            z      -0.0118      0.0242     -0.4447
-------------------------------------------------------------------------------




  Elastic Constant Matrix: (Units=GPa)

-------------------------------------------------------------------------------
  Indices      1         2         3         4         5         6    
-------------------------------------------------------------------------------
       1     59.0042   36.7253    0.0676   -0.0391    0.0164    0.0000
       2     36.7253   59.0042    0.0676    0.0391   -0.0164   -0.0000
       3      0.0676    0.0676    1.3662   -0.0000   -0.0000    0.0000
       4     -0.0391    0.0391   -0.0000    0.1362   -0.0000   -0.0164
       5      0.0164   -0.0164   -0.0000   -0.0000    0.1362   -0.0391
       6      0.0000   -0.0000    0.0000   -0.0164   -0.0391   11.1394
-------------------------------------------------------------------------------


  Elastic Compliance Matrix: (Units=1/GPa)

-------------------------------------------------------------------------------
  Indices      1         2         3         4         5         6    
-------------------------------------------------------------------------------
       1    0.027693 -0.017246 -0.000517  0.012917 -0.005403 -0.000000
       2   -0.017246  0.027693 -0.000517 -0.012917  0.005403  0.000000
       3   -0.000517 -0.000517  0.731998 -0.000000  0.000000 -0.000000
       4    0.012917 -0.012917 -0.000000  7.352608  0.000000  0.010807
       5   -0.005403  0.005403  0.000000  0.000000  7.352608  0.025834
       6   -0.000000  0.000000 -0.000000  0.010807  0.025834  0.089878
-------------------------------------------------------------------------------

  Mechanical properties :

-------------------------------------------------------------------------------
  Convention :                    Reuss         Voigt         Hill
-------------------------------------------------------------------------------
  Bulk  Modulus (GPa)     =       1.33187      21.45510      11.39349
  Shear Modulus (GPa)     =       0.31507       7.78329       4.04918
-------------------------------------------------------------------------------
  Velocity S-wave (km/s)  =       0.37254       1.85161       1.33552
  Velocity P-wave (km/s)  =       0.87848       3.74459       2.71972
-------------------------------------------------------------------------------
  Compressibility (1/GPa) =    0.75082247
-------------------------------------------------------------------------------
  Stress axis :                     x             y             z
-------------------------------------------------------------------------------
  Youngs Moduli (GPa)     =      36.11042      36.11042       1.36612
-------------------------------------------------------------------------------
  Poissons Ratio (x)      =                     0.62276       0.00071
  Poissons Ratio (y)      =       0.62276                     0.00071
  Poissons Ratio (z)      =       0.01868       0.01868
-------------------------------------------------------------------------------


  Piezoelectric Strain Matrix: (Units=C/m**2)

-------------------------------------------------------------------------------
  Indices      1         2         3         4         5         6    
-------------------------------------------------------------------------------
       x    -0.00000  -0.00000  -0.00000  -0.00000  -0.00000  -0.00000
       y     0.00000  -0.00000   0.00000   0.00000   0.00000  -0.00000
       z    -0.00000   0.00000  -0.00000   0.00000  -0.00000  -0.00000
-------------------------------------------------------------------------------


  Piezoelectric Stress Matrix: (Units=10**-11 C/N)

-------------------------------------------------------------------------------
  Indices      1         2         3         4         5         6    
-------------------------------------------------------------------------------
       x    -0.00000  -0.00000  -0.00000  -0.00000  -0.00000  -0.00000
       y     0.00000  -0.00000   0.00000   0.00000   0.00000  -0.00000
       z    -0.00000   0.00000  -0.00000   0.00000  -0.00000  -0.00000
-------------------------------------------------------------------------------


  Static dielectric constant tensor : 

-------------------------------------------------------------------------------
              x         y         z
-------------------------------------------------------------------------------
       x     2.69429  -0.00000   0.00000
       y    -0.00000   2.69429   0.00000
       z     0.00000   0.00000   2.22327
--------------------------------------------------------------------------------

  High frequency dielectric constant tensor : 

-------------------------------------------------------------------------------
              x         y         z
-------------------------------------------------------------------------------
       x     2.11991  -0.00000   0.00000
       y    -0.00000   2.11991   0.00000
       z     0.00000   0.00000   1.97865
-------------------------------------------------------------------------------

  Static refractive indices : 

-------------------------------------------------------------------------------
    1 =    1.49106      2 =    1.64143      3 =    1.64143
-------------------------------------------------------------------------------

  High frequency refractive indices : 

-------------------------------------------------------------------------------
    1 =    1.40664      2 =    1.45599      3 =    1.45599
-------------------------------------------------------------------------------


  Time to end of optimisation =       0.7248 seconds

********************************************************************************
*  Defect calculation for configuration   1 :                                  *
********************************************************************************



!!!!!!!!!!!!!!!!!!!!!!!!!!!!!!!!!!!!!!!!!!!!!!!!!!!!!!!!!!!!!!!!!!!!!!!!!!!!!!!!
!! WARNING : Ambiguous vacancy specifier used
!!!!!!!!!!!!!!!!!!!!!!!!!!!!!!!!!!!!!!!!!!!!!!!!!!!!!!!!!!!!!!!!!!!!!!!!!!!!!!!!



!!!!!!!!!!!!!!!!!!!!!!!!!!!!!!!!!!!!!!!!!!!!!!!!!!!!!!!!!!!!!!!!!!!!!!!!!!!!!!!!
!! WARNING : Ambiguous vacancy specifier used
!!!!!!!!!!!!!!!!!!!!!!!!!!!!!!!!!!!!!!!!!!!!!!!!!!!!!!!!!!!!!!!!!!!!!!!!!!!!!!!!

  Total number of defects =      2

  Total charge on defect  =   1.00

  Defect centre is at   0.0737   0.4439   0.7053  Frac

  Region 1 radius =  17.0000      Number of ions =   1296

  Region 2 radius =  24.0000      Number of ions =   2367

  Region 2a mode = 4 : screened electrostatics due to region 1 
                       neglect correction to region 1 forces from 2a
                       region 2a displacements based on defects only

  Region 2a ions will only interact with defects in region 1

  Vacancies:

--------------------------------------------------------------------------------
    Specification type     Symbol/Number         x          y          z
--------------------------------------------------------------------------------
    Atom                    Cl    core
    Atom                    Cl    shel
--------------------------------------------------------------------------------


  Components of defect energy : 

--------------------------------------------------------------------------------
  Region 1 - region 1                   =     18.36821013 eV
  Region 1 - region 2a (unrelaxed)      =     -8.08410541 eV
  Region 1 - 2a (relaxed - correction)  =     -0.14603823 eV
  Region 1 (Total)                      =     10.13806649 eV
  Region 2a                             =      0.07302449 eV
  Region 2b                             =     -0.18241543 eV
--------------------------------------------------------------------------------
  Total defect energy                   =     10.02867555 eV
--------------------------------------------------------------------------------

  Largest displacement in region 2 =   0.0057 Angstroms


  Number of variables =     3888

  Maximum number of calculations  =        1000
  Maximum Hessian update interval =          10
  Maximum step size               =   1.0000000
  Maximum parameter tolerance     =   0.0000100
  Maximum function  tolerance     =   0.0000100
  Maximum gradient  tolerance     =   0.0010000

  Symmetry adapted optimisation

  Newton-Raphson optimiser to be used

  BFGS hessian update to be used

  Lower half triangular hessian to be used

  Start of defect optimisation :

  Cycle:      0 Defect Energy:  10.028675  Gnorm:     0.004657  CPU:   29.016
  ** Hessian calculated **
  Cycle:      1 Defect Energy:   9.001947  Gnorm:     0.003793  CPU:  122.199
  Cycle:      2 Defect Energy:   7.795103  Gnorm:     0.002431  CPU:  152.027
  Cycle:      3 Defect Energy:   6.871520  Gnorm:     0.000481  CPU:  169.919
  Cycle:      4 Defect Energy:   6.821405  Gnorm:     0.000324  CPU:  173.740
  Cycle:      5 Defect Energy:   6.782983  Gnorm:     0.000218  CPU:  178.851
  Cycle:      6 Defect Energy:   6.767450  Gnorm:     0.000174  CPU:  184.446
  ** Hessian calculated **
  Cycle:      7 Defect Energy:   6.746876  Gnorm:     0.000122  CPU:  267.578
  Cycle:      8 Defect Energy:   6.736179  Gnorm:     0.000086  CPU:  271.533
  Cycle:      9 Defect Energy:   6.730263  Gnorm:     0.000061  CPU:  275.543
  Cycle:     10 Defect Energy:   6.727039  Gnorm:     0.000043  CPU:  279.554
  Cycle:     11 Defect Energy:   6.725290  Gnorm:     0.000030  CPU:  283.771
  Cycle:     12 Defect Energy:   6.724347  Gnorm:     0.000021  CPU:  287.935
  Cycle:     13 Defect Energy:   6.723855  Gnorm:     0.000015  CPU:  291.944
  Cycle:     14 Defect Energy:   6.723590  Gnorm:     0.000011  CPU:  295.925
  Cycle:     15 Defect Energy:   6.723466  Gnorm:     0.000007  CPU:  299.731
  Cycle:     16 Defect Energy:   6.723401  Gnorm:     0.000005  CPU:  303.553
  ** Hessian calculated **
  Cycle:     17 Defect Energy:   6.723373  Gnorm:     0.000004  CPU:  370.114
  Cycle:     18 Defect Energy:   6.723353  Gnorm:     0.000003  CPU:  374.042


  **** Optimisation achieved ****


  Final defect energy  =        6.72334559
  Final defect Gnorm   =        0.00000182

  Components of defect energy : 

--------------------------------------------------------------------------------
  Region 1 - region 1                   =     15.56674522 eV
  Region 1 - region 2a (unrelaxed)      =     -8.59488812 eV
  Region 1 - 2a (relaxed - correction)  =     -0.13177146 eV
  Region 1 (Total)                      =      6.84008563 eV
  Region 2a                             =      0.06585924 eV
  Region 2b                             =     -0.18259929 eV
--------------------------------------------------------------------------------
  Total defect energy                   =      6.72334559 eV
--------------------------------------------------------------------------------

  Largest displacement in region 2 =   0.0057 Angstroms

  Final coordinates of region 1 :

--------------------------------------------------------------------------------
   No.  Atomic        x           y           z          Radius      Charge
        Label       (Angs)      (Angs)      (Angs)       (Angs)       (e) 
--------------------------------------------------------------------------------
     1  Sc    c    -3.495293   -2.007598    6.155863    0.000000    3.000000
     2  Sc    c     0.339432    0.204763    6.160073    0.000000    3.000000
     3  Cl    c    -1.816386   -0.486525    5.277856    0.000000    1.485000
     4  Cl    c    -4.342768   -0.263280    7.710420    0.000000    1.485000
     5  Cl    c    -0.747528    1.811723    7.713639    0.000000    1.485000
     6  Cl    c    -3.802336   -3.677225    7.961688    0.000000    1.485000
     7  Cl    c     1.939798   -0.363541    7.965236    0.000000    1.485000
     8  Cl    c    -2.369116   -3.777098    4.830807    0.000000    1.485000
     9  Cl    c     1.308059   -1.655747    4.834977    0.000000    1.485000
    10  Cl    c    -1.063525   -5.635261    7.876927    0.000000    1.485000
    11  Cl    c     2.265657   -3.715453    7.878588    0.000000    1.485000
    12  Cl    c    -1.994081    0.175537   11.391864    0.000000    1.485000
    13  Cl    c     0.830868   -1.817833   11.385701    0.000000    1.485000
    14  Cl    c    -2.001439   -3.809138   11.400217    0.000000    1.485000
    15  Sc    c    -3.108769   -5.585635    6.443618    0.000000    3.000000
    16  Sc    c     3.245250   -1.918317    6.446661    0.000000    3.000000
    17  Cl    c    -5.419750   -1.570033    4.665373    0.000000    1.485000
    18  Cl    c     0.924329    2.089427    4.668899    0.000000    1.485000
    19  Cl    c     1.152934    1.635270   11.389288    0.000000    1.485000
    20  Sc    c     0.001954    0.001255   12.901553    0.000000    3.000000
    21  Cl    c     1.178011   -5.674469    4.918714    0.000000    1.485000
    22  Sc    c     0.000830   -3.638934   12.899699    0.000000    3.000000
    23  Cl    c    -5.444555   -1.819889   11.392666    0.000000    1.485000
    24  Sc    c    -6.432433    0.065015    6.318655    0.000000    3.000000
    25  Sc    c     0.013538    3.784776    6.320930    0.000000    3.000000
    26  Cl    c     1.150774   -5.275218   11.391411    0.000000    1.485000
    27  Sc    c     0.053755   -7.346715    6.411013    0.000000    3.000000
    28  Sc    c     3.188571   -5.537560    6.410685    0.000000    3.000000
    29  Cl    c    -5.481522    1.866804    4.873011    0.000000    1.485000
    30  Cl    c    -2.021307    3.862329    4.873840    0.000000    1.485000
    31  Cl    c    -5.140758    1.631819   11.377546    0.000000    1.485000
    32  Cl    c    -4.283041    3.785610    7.862955    0.000000    1.485000
    33  Cl    c    -7.435975   -1.663237    7.820349    0.000000    1.485000
    34  Cl    c    -1.960337   -7.191320    4.919245    0.000000    1.485000
    35  Cl    c     4.061101   -3.714423    4.920485    0.000000    1.485000
    36  Cl    c     2.012544    3.791463    7.821856    0.000000    1.485000
    37  Cl    c    -4.297961   -7.143508    7.986649    0.000000    1.485000
    38  Cl    c     5.190223   -1.666878    7.988032    0.000000    1.485000
    39  Cl    c     2.036206   -7.161050    7.926262    0.000000    1.485000
    40  Cl    c    -5.166924   -5.603653    5.022497    0.000000    1.485000
    41  Cl    c     4.288459   -0.145005    5.024303    0.000000    1.485000
    42  Sc    c    -3.151870    1.822015   12.890654    0.000000    3.000000
    43  Cl    c    -1.155635   -1.990496    1.466700    0.000000    1.485000
    44  Cl    c    -2.296542    3.636169   11.389733    0.000000    1.485000
    45  Cl    c    -5.140566   -5.272382   11.388405    0.000000    1.485000
    46  Cl    c    -0.867308   -1.818370   14.383705    0.000000    1.485000
    47  Sc    c    -3.151499   -5.457249   12.902968    0.000000    3.000000
    48  Cl    c     4.297182    0.166006   11.399398    0.000000    1.485000
    49  Cl    c    -2.294816   -7.269782   11.401196    0.000000    1.485000
    50  Cl    c     4.294409   -3.799757   11.399155    0.000000    1.485000
    51  Cl    c    -7.136106    1.850978    7.911069    0.000000    1.485000
    52  Cl    c    -1.181793    5.288582    7.911632    0.000000    1.485000
    53  Cl    c    -3.980710   -0.003915    1.473050    0.000000    1.485000
    54  Cl    c    -1.146822    1.659202   14.381454    0.000000    1.485000
    55  Cl    c    -1.144143    1.984621    1.463046    0.000000    1.485000
    56  Cl    c    -4.292359   -3.454196    1.470318    0.000000    1.485000
    57  Sc    c    -6.299051    0.000382   12.890786    0.000000    3.000000
    58  Cl    c     1.989562   -3.448088    1.490104    0.000000    1.485000
    59  Cl    c    -7.446978   -5.593929    7.953593    0.000000    1.485000
    60  Cl    c    -4.285379    0.153897   14.373576    0.000000    1.485000
    61  Cl    c     5.421618    1.834432    7.954889    0.000000    1.485000
    62  Cl    c     2.289495    0.002958    1.471724    0.000000    1.485000
    63  Sc    c    -6.299432   -3.636884   12.895388    0.000000    3.000000
    64  Sc    c     3.152773    1.818804   12.894950    0.000000    3.000000
    65  Cl    c     2.010922    0.157574   14.383815    0.000000    1.485000
    66  Cl    c    -0.854104   -5.448809    1.478290    0.000000    1.485000
    67  Cl    c    -0.852036   -9.121410    7.920850    0.000000    1.485000
    68  Cl    c     5.177623   -5.640214    7.921674    0.000000    1.485000
    69  Cl    c    -1.144617   -5.289590   14.391116    0.000000    1.485000
    70  Sc    c    -6.316204    3.682604    6.401228    0.000000    3.000000
    71  Sc    c    -3.177050    5.494158    6.400468    0.000000    3.000000
    72  Cl    c    -4.288784   -3.787697   14.382222    0.000000    1.485000
    73  Cl    c     2.011374   -3.787046   14.381422    0.000000    1.485000
    74  Sc    c     3.151520   -5.453331   12.895590    0.000000    3.000000
    75  Sc    c    -6.318053   -7.286890    6.495109    0.000000    3.000000
    76  Sc    c     6.322859    0.010948    6.495242    0.000000    3.000000
    77  Cl    c    -8.466415   -0.130575    4.888931    0.000000    1.485000
    78  Cl    c     1.199242    5.447424    4.889414    0.000000    1.485000
    79  Sc    c    -3.149042   -1.818302   -0.046888    0.000000    3.000000
    80  Cl    c    -8.296344    0.172732   11.389305    0.000000    1.485000
    81  Cl    c     3.993611    3.635487   11.389502    0.000000    1.485000
    82  Cl    c    -8.606741   -3.651483    4.939336    0.000000    1.485000
    83  Sc    c     0.004025   -3.640005   -0.027342    0.000000    3.000000
    84  Cl    c     4.319586    3.810020    4.940428    0.000000    1.485000
    85  Cl    c    -8.297844   -3.807428   11.395676    0.000000    1.485000
    86  Cl    c     0.891182   -9.171842    4.926201    0.000000    1.485000
    87  Cl    c     4.351183   -7.175591    4.926789    0.000000    1.485000
    88  Cl    c     1.144792    5.618496   11.396705    0.000000    1.485000
    89  Sc    c    -9.511045   -1.837557    6.410341    0.000000    3.000000
    90  Sc    c     3.200172    5.500703    6.410189    0.000000    3.000000
    91  Cl    c     3.997406   -7.269670   11.393094    0.000000    1.485000
    92  Cl    c    -5.167576    5.317237    4.893267    0.000000    1.485000
    93  Cl    c     1.142591   -9.250731   11.402879    0.000000    1.485000
    94  Cl    c    -4.293380    3.454968    1.480925    0.000000    1.485000
    95  Cl    c     1.992709    3.455275    1.482973    0.000000    1.485000
    96  Sc    c    -3.148486    1.821757   -0.033975    0.000000    3.000000
    97  Cl    c    -4.017009    3.637084   14.379249    0.000000    1.485000
    98  Cl    c    -7.154940   -1.815937   14.385670    0.000000    1.485000
    99  Sc    c    -3.149513    5.457419   12.891036    0.000000    3.000000
   100  Cl    c    -7.436519   -1.980815    1.475189    0.000000    1.485000
   101  Cl    c    -5.151241    5.619973   11.393741    0.000000    1.485000
   102  Cl    c     5.142354   -1.985942    1.489106    0.000000    1.485000
   103  Sc    c     3.151573   -1.817781   -0.021310    0.000000    3.000000
   104  Cl    c     7.143807   -1.816396   11.394046    0.000000    1.485000
   105  Cl    c     2.272658    3.631921   14.379343    0.000000    1.485000
   106  Cl    c    -4.015024   -7.272908   14.391794    0.000000    1.485000
   107  Cl    c    -5.424159   -9.080132    4.996186    0.000000    1.485000
   108  Cl    c     7.429373   -1.660061    4.997043    0.000000    1.485000
   109  Sc    c     6.300269   -0.000600   12.900992    0.000000    3.000000
   110  Cl    c    -4.288683   -7.429159    1.485333    0.000000    1.485000
   111  Cl    c     2.002158   -7.432274    1.488075    0.000000    1.485000
   112  Sc    c    -3.148234   -9.092001   12.900576    0.000000    3.000000
   113  Sc    c     6.298778   -3.634612   12.898062    0.000000    3.000000
   114  Sc    c    -9.456747   -5.464279    6.453529    0.000000    3.000000
   115  Sc    c     6.313925    3.640467    6.455542    0.000000    3.000000
   116  Cl    c     5.423772   -1.817861   14.385257    0.000000    1.485000
   117  Cl    c     2.276125   -7.265983   14.383478    0.000000    1.485000
   118  Cl    c    -5.151973   -9.251850   11.405808    0.000000    1.485000
   119  Cl    c    -7.449134    5.312624    7.919390    0.000000    1.485000
   120  Cl    c    -4.022430    7.289457    7.919671    0.000000    1.485000
   121  Cl    c   -10.298603   -3.642147    7.952887    0.000000    1.485000
   122  Cl    c     5.156201    5.281188    7.953683    0.000000    1.485000
   123  Cl    c    -8.333732    3.812264    4.930306    0.000000    1.485000
   124  Cl    c    -2.280446    7.307105    4.930813    0.000000    1.485000
   125  Cl    c    -1.996409    7.095941   11.387152    0.000000    1.485000
   126  Sc    c     0.003875  -10.964035    6.444751    0.000000    3.000000
   127  Cl    c    -8.288042   -7.104180    4.963442    0.000000    1.485000
   128  Sc    c     6.346367   -7.302590    6.446233    0.000000    3.000000
   129  Cl    c     7.149422    1.809039    4.964371    0.000000    1.485000
   130  Cl    c   -10.601255   -0.171087    7.924961    0.000000    1.485000
   131  Cl    c     2.301805    7.277486    7.925452    0.000000    1.485000
   132  Cl    c    -0.855490    5.446472    1.477358    0.000000    1.485000
   133  Sc    c     0.003679    3.641420   -0.031699    0.000000    3.000000
   134  Cl    c    -7.135869   -5.447155    1.492517    0.000000    1.485000
   135  Cl    c    -7.162581   -9.108362    7.983824    0.000000    1.485000
   136  Cl    c     8.322215   -0.167958    7.984554    0.000000    1.485000
   137  Cl    c    -2.284055    0.005345   -1.526053    0.000000    1.485000
   138  Cl    c    -1.997417   -3.477105   -1.523479    0.000000    1.485000
   139  Cl    c    -7.432362    1.663468   14.377869    0.000000    1.485000
   140  Sc    c    -6.301334   -3.636638   -0.023821    0.000000    3.000000
   141  Sc    c     3.152434    1.821456   -0.024944    0.000000    3.000000
   142  Cl    c     5.152023    1.654162   14.391053    0.000000    1.485000
   143  Cl    c    -7.435319    1.978856    1.480808    0.000000    1.485000
   144  Cl    c     1.142384   -1.974628   -1.509782    0.000000    1.485000
   145  Sc    c     3.146941    5.453655   12.895833    0.000000    3.000000
   146  Cl    c     5.143903    1.984756    1.484794    0.000000    1.485000
   147  Cl    c    -1.149296   -8.908377    1.497577    0.000000    1.485000
   148  Cl    c    -1.140427    5.604280   14.378239    0.000000    1.485000
   149  Cl    c    -8.586340    3.636808   11.396915    0.000000    1.485000
   150  Cl    c    -7.434703   -5.294725   14.386836    0.000000    1.485000
   151  Sc    c     0.003223   -7.276034   -0.013381    0.000000    3.000000
   152  Cl    c     5.151013   -5.285798   14.391906    0.000000    1.485000
   153  Cl    c    -1.997632  -10.732319   11.397629    0.000000    1.485000
   154  Cl    c     7.441019    1.651684   11.403829    0.000000    1.485000
   155  Cl    c    -2.007442  -11.088229    4.958994    0.000000    1.485000
   156  Cl    c     7.458543   -5.623057    4.959354    0.000000    1.485000
   157  Cl    c    -4.285376  -11.071807    7.953574    0.000000    1.485000
   158  Cl    c     8.584492   -3.642639    7.953874    0.000000    1.485000
   159  Cl    c     5.433046   -5.450403    1.490633    0.000000    1.485000
   160  Cl    c     2.004179  -11.083813    7.945294    0.000000    1.485000
   161  Cl    c     5.450026   -9.095754    7.945555    0.000000    1.485000
   162  Cl    c    -8.583583   -7.270001   11.404451    0.000000    1.485000
   163  Sc    c     3.147691   -9.087616   12.897532    0.000000    3.000000
   164  Cl    c     7.441839   -5.285461   11.401694    0.000000    1.485000
   165  Cl    c    -1.139413   -9.239720   14.388214    0.000000    1.485000
   166  Cl    c    -2.290958   -0.000096   17.862259    0.000000    1.485000
   167  Cl    c    -1.999782   -3.465791   17.861753    0.000000    1.485000
   168  Cl    c    -5.162452   -1.981480   -1.521725    0.000000    1.485000
   169  Cl    c     1.145326   -1.984733   17.863427    0.000000    1.485000
   170  Sc    c    -9.446025    1.819862   12.892684    0.000000    3.000000
   171  Sc    c    -0.000330    7.271541   12.894305    0.000000    3.000000
   172  Cl    c     1.144836    1.977718   -1.515095    0.000000    1.485000
   173  Cl    c     0.870627   -5.460615   -1.508003    0.000000    1.485000
   174  Sc    c    -9.446640   -5.454527   12.899693    0.000000    3.000000
   175  Sc    c     0.000947  -10.904813   12.901511    0.000000    3.000000
   176  Cl    c   -11.528537   -1.673439    4.945081    0.000000    1.485000
   177  Cl    c     4.066716    7.330622    4.945757    0.000000    1.485000
   178  Sc    c    -6.298072  -10.915105    6.470640    0.000000    3.000000
   179  Sc    c     9.455093   -1.820313    6.472132    0.000000    3.000000
   180  Cl    c    -2.002206    3.475610   -1.521424    0.000000    1.485000
   181  Cl    c    -5.147956   -1.985442   17.861802    0.000000    1.485000
   182  Sc    c    -6.298948    3.636104   -0.016330    0.000000    3.000000
   183  Cl    c    -5.161933    1.975348   -1.511201    0.000000    1.485000
   184  Cl    c     4.009564   -0.000207   -1.513164    0.000000    1.485000
   185  Cl    c     1.145783    1.982391   17.863590    0.000000    1.485000
   186  Cl    c   -10.583030    3.794410    7.931059    0.000000    1.485000
   187  Cl    c    -1.140243    9.246011    7.931264    0.000000    1.485000
   188  Cl    c     0.855070   -5.450533   17.862107    0.000000    1.485000
   189  Cl    c     4.294619    7.101110   11.398987    0.000000    1.485000
   190  Cl    c   -10.588917   -7.117169    7.951356    0.000000    1.485000
   191  Cl    c     8.312389    3.795282    7.951910    0.000000    1.485000
   192  Cl    c    -1.158131  -12.581974    7.958038    0.000000    1.485000
   193  Cl    c     8.329457   -7.104775    7.958149    0.000000    1.485000
   194  Sc    c    -6.294615   -7.271554   -0.009390    0.000000    3.000000
   195  Sc    c    -9.469936    5.467863    6.437269    0.000000    3.000000
   196  Sc    c    -3.146756    9.118021    6.438593    0.000000    3.000000
   197  Cl    c    -5.426449   -5.455497   -1.503885    0.000000    1.485000
   198  Cl    c     4.292485   -3.482051   -1.500677    0.000000    1.485000
   199  Sc    c    -3.146621   -9.088968   -0.007181    0.000000    3.000000
   200  Sc    c     6.299061   -3.636713   -0.005277    0.000000    3.000000
   201  Cl    c    -2.006606   -7.428476   -1.499044    0.000000    1.485000
   202  Cl    c   -11.731478   -1.817174   11.405053    0.000000    1.485000
   203  Cl    c     4.294059  -10.736855   11.401750    0.000000    1.485000
   204  Cl    c    -2.000118    3.464280   17.860570    0.000000    1.485000
   205  Cl    c    -7.142646    5.447920    1.492796    0.000000    1.485000
   206  Cl    c   -10.286860   -0.001289    1.496238    0.000000    1.485000
   207  Cl    c     4.295022  -11.073897    4.971601    0.000000    1.485000
   208  Cl    c    -5.147020    1.983632   17.860979    0.000000    1.485000
   209  Cl    c    -4.291799    7.106992   14.386862    0.000000    1.485000
   210  Cl    c     1.999031    7.099894   14.392897    0.000000    1.485000
   211  Cl    c   -11.446523    1.645449   11.396019    0.000000    1.485000
   212  Cl    c     4.001132   -0.000149   17.861508    0.000000    1.485000
   213  Sc    c    -3.159098  -12.737738    6.456171    0.000000    3.000000
   214  Sc    c     9.463847   -5.450047    6.455109    0.000000    3.000000
   215  Cl    c   -11.454853   -5.625550    4.957047    0.000000    1.485000
   216  Cl    c     7.451607    5.289754    4.957605    0.000000    1.485000
   217  Sc    c    -6.298100    7.271186   12.894041    0.000000    3.000000
   218  Sc    c    -9.448883   -1.816337   -0.014189    0.000000    3.000000
   219  Cl    c     0.857826    9.089539   11.401128    0.000000    1.485000
   220  Cl    c   -11.445044   -5.281044   11.399729    0.000000    1.485000
   221  Cl    c   -11.741035    1.813563    4.959127    0.000000    1.485000
   222  Cl    c     1.154122    9.257338    4.959332    0.000000    1.485000
   223  Cl    c    -5.436250   -5.450532   17.863536    0.000000    1.485000
   224  Cl    c     4.292584   -3.468378   17.863636    0.000000    1.485000
   225  Cl    c    -4.288789    7.429117    1.486260    0.000000    1.485000
   226  Cl    c     2.001165    7.431637    1.487780    0.000000    1.485000
   227  Cl    c   -10.583153   -3.468811    1.487536    0.000000    1.485000
   228  Cl    c     1.160488  -12.609108    4.957732    0.000000    1.485000
   229  Cl    c     7.192608   -9.125818    4.957869    0.000000    1.485000
   230  Cl    c    -7.438441   -8.914032    1.495754    0.000000    1.485000
   231  Cl    c     8.292916   -3.461010    1.499971    0.000000    1.485000
   232  Cl    c    -2.002882   -7.433355   17.864130    0.000000    1.485000
   233  Cl    c     5.146401   -8.911427    1.502750    0.000000    1.485000
   234  Cl    c    -7.432009    5.605870   14.382706    0.000000    1.485000
   235  Cl    c   -10.576534    0.157426   14.385214    0.000000    1.485000
   236  Cl    c     5.432112    5.447457    1.490336    0.000000    1.485000
   237  Cl    c     5.150870    5.605286   14.388331    0.000000    1.485000
   238  Cl    c    -4.003579  -10.901051    1.493793    0.000000    1.485000
   239  Cl    c     8.301330    0.161124   14.395322    0.000000    1.485000
   240  Sc    c   -12.625856    0.007034    6.451791    0.000000    3.000000
   241  Cl    c    -4.291253  -10.740356   14.397808    0.000000    1.485000
   242  Sc    c     3.160130    9.120563    6.453351    0.000000    3.000000
   243  Sc    c    -3.147022   -1.817338   19.360964    0.000000    3.000000
   244  Cl    c     2.002125  -10.732921   14.398030    0.000000    1.485000
   245  Cl    c   -10.579238   -3.790323   14.388873    0.000000    1.485000
   246  Sc    c     3.151883   -9.090356   -0.002766    0.000000    3.000000
   247  Cl    c     8.299890   -3.793178   14.393162    0.000000    1.485000
   248  Sc    c     0.000460   -3.634760   19.362768    0.000000    3.000000
   249  Sc    c    -6.296760  -10.905597   12.904275    0.000000    3.000000
   250  Cl    c     8.580831   -0.000310    1.492326    0.000000    1.485000
   251  Cl    c     7.437216    5.614217   11.407196    0.000000    1.485000
   252  Cl    c     2.288230  -10.902905    1.494344    0.000000    1.485000
   253  Cl    c    -8.296866    7.097573   11.393459    0.000000    1.485000
   254  Cl    c     0.858769  -12.720752   11.405483    0.000000    1.485000
   255  Cl    c    -7.433747   -9.241302   14.392123    0.000000    1.485000
   256  Cl    c     5.151850   -9.240009   14.390370    0.000000    1.485000
   257  Cl    c     0.868187    5.464071   -1.511221    0.000000    1.485000
   258  Cl    c    -8.307596   -3.471461   -1.509843    0.000000    1.485000
   259  Sc    c    -9.446188    1.817517   -0.009418    0.000000    3.000000
   260  Cl    c    -8.589667    7.274801    4.944746    0.000000    1.485000
   261  Cl    c    -5.150973    9.258849    4.944892    0.000000    1.485000
   262  Sc    c     0.000431    7.276128   -0.011453    0.000000    3.000000
   263  Sc    c    -9.444388    5.453706   12.897513    0.000000    3.000000
   264  Sc    c     3.162773  -12.740375    6.461740    0.000000    3.000000
   265  Sc    c     6.305099  -10.926448    6.460604    0.000000    3.000000
   266  Cl    c     4.296527    3.481357   -1.506562    0.000000    1.485000
   267  Cl    c    -5.155470  -12.547630    4.954807    0.000000    1.485000
   268  Cl    c    10.297295   -3.625175    4.954912    0.000000    1.485000
   269  Cl    c     7.435851   -9.249141   11.406972    0.000000    1.485000
   270  Cl    c    -5.435615    9.087970   11.401149    0.000000    1.485000
   271  Sc    c     6.300575    3.636864   -0.007728    0.000000    3.000000
   272  Cl    c    -8.578048    0.001196   -1.501576    0.000000    1.485000
   273  Cl    c    -8.293896  -10.732747   11.401147    0.000000    1.485000
   274  Cl    c     1.148769   -8.930626   -1.500779    0.000000    1.485000
   275  Sc    c    -3.146940    1.817222   19.361453    0.000000    3.000000
   276  Cl    c    -8.301156  -11.056074    4.976102    0.000000    1.485000
   277  Cl    c    10.577706   -0.156428    4.976329    0.000000    1.485000
   278  Sc    c    -9.442816   -9.088194   12.902687    0.000000    3.000000
   279  Sc    c     9.445395    1.818543   12.902730    0.000000    3.000000
   280  Sc    c     6.297058   -7.270892   -0.002319    0.000000    3.000000
   281  Sc    c     3.148127   -1.817613   19.361312    0.000000    3.000000
   282  Cl    c     4.288468   -7.427518   -1.492373    0.000000    1.485000
   283  Cl    c    -1.150743    8.911472    1.496449    0.000000    1.485000
   284  Sc    c     9.444471   -5.452341   12.902628    0.000000    3.000000
   285  Cl    c   -10.298788    3.633832   14.392591    0.000000    1.485000
   286  Cl    c     0.856253    5.450988   17.862516    0.000000    1.485000
   287  Cl    c    10.585605    0.162333   11.409010    0.000000    1.485000
   288  Cl    c    -5.433454  -12.719537   11.408503    0.000000    1.485000
   289  Cl    c    -8.294064   -3.466466   17.861142    0.000000    1.485000
   290  Cl    c     4.291781    3.466238   17.863044    0.000000    1.485000
   291  Cl    c    10.584831   -3.796055   11.408687    0.000000    1.485000
   292  Cl    c   -10.583456    3.467338    1.492780    0.000000    1.485000
   293  Cl    c    -5.427503    5.453351   -1.501083    0.000000    1.485000
   294  Cl    c     8.293238    3.461069    1.499342    0.000000    1.485000
   295  Cl    c    -8.582379   -0.000927   17.862151    0.000000    1.485000
   296  Cl    c    -0.867313    9.082092   14.389795    0.000000    1.485000
   297  Cl    c    -5.148271   -8.921748   -1.503215    0.000000    1.485000
   298  Cl    c    -7.431443    9.239030    7.931303    0.000000    1.485000
   299  Cl    c   -10.300200   -7.269338   14.397878    0.000000    1.485000
   300  Cl    c   -13.744535   -1.654524    7.953182    0.000000    1.485000
   301  Cl    c     1.146078   -8.917680   17.861590    0.000000    1.485000
   302  Cl    c     5.159231    9.259345    7.953457    0.000000    1.485000
   303  Sc    c   -12.591469   -0.000214   12.902077    0.000000    3.000000
   304  Cl    c    -7.442693  -12.567543    7.960999    0.000000    1.485000
   305  Cl    c    11.459350   -1.654807    7.961122    0.000000    1.485000
   306  Cl    c     5.154892  -12.561776    7.968699    0.000000    1.485000
   307  Sc    c   -12.591674   -3.633944   12.902435    0.000000    3.000000
   308  Sc    c     6.294976    7.269170   12.902258    0.000000    3.000000
   309  Sc    c   -12.601315    3.635464    6.451102    0.000000    3.000000
   310  Sc    c     0.005757   10.913908    6.450044    0.000000    3.000000
   311  Sc    c     0.000578    3.634201   19.360703    0.000000    3.000000
   312  Sc    c    -6.294448   -3.634454   19.361840    0.000000    3.000000
   313  Sc    c     3.147876    1.816675   19.362476    0.000000    3.000000
   314  Cl    c   -11.468326    5.285270    4.942417    0.000000    1.485000
   315  Cl    c    -1.990214   10.756898    4.942475    0.000000    1.485000
   316  Cl    c     7.435222   -1.974548   -1.493562    0.000000    1.485000
   317  Cl    c   -10.307468    7.280573    7.944461    0.000000    1.485000
   318  Cl    c    -4.298573   10.750175    7.944616    0.000000    1.485000
   319  Cl    c   -13.448700    1.825375    7.962187    0.000000    1.485000
   320  Cl    c     1.996231   10.743125    7.962331    0.000000    1.485000
   321  Cl    c     4.289613   -7.433226   17.864634    0.000000    1.485000
   322  Cl    c   -10.581842   -7.429651    1.491718    0.000000    1.485000
   323  Cl    c     8.297494   -7.430801    1.495905    0.000000    1.485000
   324  Sc    c   -12.598436   -7.279685    6.456861    0.000000    3.000000
   325  Sc    c     9.456835    5.453878    6.456021    0.000000    3.000000
   326  Sc    c     0.000385   -7.269165   19.360614    0.000000    3.000000
   327  Cl    c    -8.303353    3.469730   -1.506257    0.000000    1.485000
   328  Cl    c     8.571705    3.632055   14.393159    0.000000    1.485000
   329  Cl    c    -0.856212   -1.817405   -4.959315    0.000000    1.485000
   330  Cl    c    -0.863973  -12.717624   14.395850    0.000000    1.485000
   331  Sc    c     6.295032  -10.903890   12.903651    0.000000    3.000000
   332  Sc    c    -6.295073    7.270411   -0.007098    0.000000    3.000000
   333  Cl    c    -1.144073  -12.879518    1.493049    0.000000    1.485000
   334  Cl    c    -5.435466    5.451335   17.862754    0.000000    1.485000
   335  Cl    c    -1.141780   -1.977140   20.853537    0.000000    1.485000
   336  Cl    c    -5.146934   -8.916034   17.861278    0.000000    1.485000
   337  Cl    c     8.571748   -7.266658   14.392364    0.000000    1.485000
   338  Cl    c   -11.448237    5.616470   11.404197    0.000000    1.485000
   339  Cl    c    -2.007610    7.429165   -1.499745    0.000000    1.485000
   340  Cl    c    10.294387    3.636071   11.402555    0.000000    1.485000
   341  Cl    c     7.155618   -5.453919   -1.498825    0.000000    1.485000
   342  Cl    c    -8.302541   -7.427247   -1.495789    0.000000    1.485000
   343  Cl    c     7.436837   -1.982889   17.864487    0.000000    1.485000
   344  Cl    c   -13.728895   -5.614353    7.946759    0.000000    1.485000
   345  Cl    c     8.579934    7.264754    7.947018    0.000000    1.485000
   346  Cl    c    -2.002915   11.065938   11.408359    0.000000    1.485000
   347  Sc    c     9.444715   -1.816982   -0.002702    0.000000    3.000000
   348  Cl    c    -4.021182  -14.552389    7.947868    0.000000    1.485000
   349  Cl    c    11.465765   -5.610242    7.947875    0.000000    1.485000
   350  Cl    c     7.437887    1.974260   -1.494920    0.000000    1.485000
   351  Cl    c    -2.280629  -10.904844   -1.496397    0.000000    1.485000
   352  Cl    c    10.295213   -7.268746   11.402244    0.000000    1.485000
   353  Cl    c    -1.146838    1.648449   -4.958249    0.000000    1.485000
   354  Cl    c   -11.720931   -9.089240    4.964670    0.000000    1.485000
   355  Cl    c    10.585832    3.788728    4.964894    0.000000    1.485000
   356  Cl    c   -11.445626   -9.249699   11.407846    0.000000    1.485000
   357  Cl    c    -8.294388    3.463888   17.858609    0.000000    1.485000
   358  Cl    c    -2.291422  -14.543901    4.955976    0.000000    1.485000
   359  Cl    c    10.594980   -7.104868    4.955994    0.000000    1.485000
   360  Cl    c   -10.582521  -11.065712    7.951321    0.000000    1.485000
   361  Cl    c    11.727681    1.814176    7.951405    0.000000    1.485000
   362  Cl    c    -4.290622    0.167211   -4.958917    0.000000    1.485000
   363  Cl    c     2.000597    0.167386   -4.957811    0.000000    1.485000
   364  Cl    c    -1.146038   -5.281344   -4.957386    0.000000    1.485000
   365  Cl    c     2.289716  -14.547211    7.958743    0.000000    1.485000
   366  Cl    c     8.305583  -11.073179    7.958872    0.000000    1.485000
   367  Cl    c    -4.010065   -0.000369   20.853404    0.000000    1.485000
   368  Cl    c    -4.291283   -3.799709   -4.959096    0.000000    1.485000
   369  Cl    c     2.000203   -3.799678   -4.958274    0.000000    1.485000
   370  Sc    c    -3.148833    9.088669   -0.007310    0.000000    3.000000
   371  Cl    c    -1.140895    1.976792   20.852819    0.000000    1.485000
   372  Cl    c    -4.288222   -3.473260   20.853687    0.000000    1.485000
   373  Cl    c     2.005384   -3.472444   20.854989    0.000000    1.485000
   374  Cl    c    -2.002268    7.431181   17.864629    0.000000    1.485000
   375  Cl    c     2.282489   -0.001107   20.853308    0.000000    1.485000
   376  Cl    c    -0.863597   -5.452025   20.853771    0.000000    1.485000
   377  Cl    c     7.148523   -5.451689   17.862452    0.000000    1.485000
   378  Sc    c     0.000720   10.905302   12.903956    0.000000    3.000000
   379  Cl    c    -8.297001   -7.432078   17.864521    0.000000    1.485000
   380  Cl    c    -2.003977  -14.697570   11.411550    0.000000    1.485000
   381  Sc    c    -9.443185    9.094366    6.444582    0.000000    3.000000
   382  Sc    c    -6.300698   10.908352    6.443555    0.000000    3.000000
   383  Sc    c    -6.294504    3.634077   19.358654    0.000000    3.000000
   384  Cl    c     7.437472    1.980791   17.864739    0.000000    1.485000
   385  Sc    c    -9.442490   -9.087458   -0.002172    0.000000    3.000000
   386  Sc    c     9.445662    1.816742   -0.002023    0.000000    3.000000
   387  Cl    c    -2.288054  -10.900641   17.864247    0.000000    1.485000
   388  Sc    c     9.440910    5.451669   12.905025    0.000000    3.000000
   389  Sc    c    -3.147607  -12.722501   -0.002933    0.000000    3.000000
   390  Sc    c    -6.294218   -7.268530   19.360916    0.000000    3.000000
   391  Cl    c   -14.628775   -0.158782    4.962032    0.000000    1.485000
   392  Sc    c    -3.147171   -9.085467   19.362281    0.000000    3.000000
   393  Cl    c     4.304393   10.771707    4.962256    0.000000    1.485000
   394  Sc    c     6.294996   -3.635289   19.362593    0.000000    3.000000
   395  Cl    c    -7.438367    8.916355    1.494584    0.000000    1.485000
   396  Cl    c     5.143669    8.912276    1.502548    0.000000    1.485000
   397  Cl    c    -7.156412    9.083092   14.393106    0.000000    1.485000
   398  Sc    c     0.001197  -14.538303   12.905197    0.000000    3.000000
   399  Cl    c   -13.442459   -1.816694   14.401697    0.000000    1.485000
   400  Sc    c     9.440557   -9.085558   12.902697    0.000000    3.000000
   401  Sc    c    -9.444438  -12.725676    6.459165    0.000000    3.000000
   402  Sc    c    12.596121   -0.000586    6.458085    0.000000    3.000000
   403  Cl    c   -11.455386   -1.979184   -1.500926    0.000000    1.485000
   404  Sc    c     3.148916    9.089909   -0.003300    0.000000    3.000000
   405  Cl    c   -14.594680    0.165111   11.407842    0.000000    1.485000
   406  Cl    c     7.151037    9.086947   11.407224    0.000000    1.485000
   407  Sc    c   -12.593686   -3.636145   -0.003214    0.000000    3.000000
   408  Sc    c     6.293650    7.270245   -0.000761    0.000000    3.000000
   409  Cl    c   -14.595428   -3.798393   11.409035    0.000000    1.485000
   410  Cl    c   -13.731717   -1.981649    1.494097    0.000000    1.485000
   411  Cl    c     4.286366    7.426550   -1.492214    0.000000    1.485000
   412  Cl    c    11.444601   -1.982646    1.495905    0.000000    1.485000
   413  Sc    c    -9.441644   -1.817412   19.359874    0.000000    3.000000
   414  Cl    c     5.426711    9.081841   14.396128    0.000000    1.485000
   415  Cl    c   -14.870844   -3.636375    4.965429    0.000000    1.485000
   416  Cl    c     7.438469    9.243019    4.965685    0.000000    1.485000
   417  Cl    c    -4.002839    3.632561   -4.958445    0.000000    1.485000
   418  Cl    c     4.013025  -10.906285   -1.494956    0.000000    1.485000
   419  Cl    c    -7.147757   -1.817476   -4.956720    0.000000    1.485000
   420  Cl    c    -7.156378  -12.720245   14.399488    0.000000    1.485000
   421  Cl    c     4.024388  -14.552368    4.966426    0.000000    1.485000
   422  Cl    c     7.444483  -12.578939    4.966507    0.000000    1.485000
   423  Cl    c     4.290045   11.064213   11.411856    0.000000    1.485000
   424  Cl    c    -4.289781    3.472963   20.852857    0.000000    1.485000
   425  Sc    c     3.148809  -12.723626   -0.000499    0.000000    3.000000
   426  Cl    c     2.004021    3.471271   20.855191    0.000000    1.485000
   427  Cl    c     1.145843    8.929818   -1.500910    0.000000    1.485000
   428  Cl    c     2.288466    3.632957   -4.959329    0.000000    1.485000
   429  Cl    c     7.152341  -12.720616   11.407689    0.000000    1.485000
   430  Cl    c    -4.004202   -7.267340   -4.958667    0.000000    1.485000
   431  Cl    c   -11.443420   -1.983434   17.862677    0.000000    1.485000
   432  Cl    c   -13.732670    5.293285    7.946742    0.000000    1.485000
   433  Cl    c    -0.864469   12.721699    7.946781    0.000000    1.485000
   434  Sc    c     3.147095   -9.086719   19.361784    0.000000    3.000000
   435  Cl    c    -4.007550   10.901491    1.492385    0.000000    1.485000
   436  Cl    c   -13.439251   -5.453115    1.499456    0.000000    1.485000
   437  Cl    c   -13.446705   -9.094948    7.956938    0.000000    1.485000
   438  Cl    c    11.452474    5.281365    7.957017    0.000000    1.485000
   439  Cl    c   -11.452515    1.978233   -1.497054    0.000000    1.485000
   440  Cl    c    -7.436900  -12.880248    1.492901    0.000000    1.485000
   441  Cl    c   -10.582593    7.106225   14.394719    0.000000    1.485000
   442  Cl    c     7.157172    5.456191   -1.498533    0.000000    1.485000
   443  Cl    c    -7.435335   -1.976271   20.852425    0.000000    1.485000
   444  Cl    c     5.150573  -12.884155    1.496706    0.000000    1.485000
   445  Cl    c     5.151854   -1.978782   20.854989    0.000000    1.485000
   446  Cl    c     8.292910    7.099818   14.402370    0.000000    1.485000
   447  Sc    c    -6.293600   10.904054   12.902640    0.000000    3.000000
   448  Cl    c    11.721706   -1.817444   14.398042    0.000000    1.485000
   449  Cl    c     5.434436   -1.817294   -4.959276    0.000000    1.485000
   450  Cl    c     2.287820   -7.267860   -4.959248    0.000000    1.485000
   451  Cl    c     5.428585  -12.717830   14.397154    0.000000    1.485000
   452  Cl    c     2.285912   10.903486    1.493388    0.000000    1.485000
   453  Sc    c     0.000061   -0.000032   -6.457617    0.000000    3.000000
   454  Cl    c   -10.296182  -10.902971    1.497164    0.000000    1.485000
   455  Cl    c   -13.727610    1.657274   14.396033    0.000000    1.485000
   456  Cl    c     4.290490    7.430436   17.865122    0.000000    1.485000
   457  Sc    c     0.000073   -3.634320   -6.458842    0.000000    3.000000
   458  Cl    c    -4.288177   -7.426594   20.853122    0.000000    1.485000
   459  Cl    c   -10.582666    7.428950    1.492230    0.000000    1.485000
   460  Cl    c   -13.731535    1.981655    1.494852    0.000000    1.485000
   461  Cl    c     2.005364   -7.428025   20.853155    0.000000    1.485000
   462  Sc    c    -9.441085    1.816280   19.359489    0.000000    3.000000
   463  Sc    c     0.000339    7.268236   19.362199    0.000000    3.000000
   464  Cl    c    11.444775    1.653770   14.400730    0.000000    1.485000
   465  Cl    c    -8.297921   10.738530    4.942079    0.000000    1.485000
   466  Cl    c     4.004733  -10.902197   17.863209    0.000000    1.485000
   467  Cl    c     8.296129    7.429783    1.495837    0.000000    1.485000
   468  Cl    c    11.446675    1.981826    1.494862    0.000000    1.485000
   469  Cl    c    -4.286795   11.057442   14.394320    0.000000    1.485000
   470  Cl    c     4.289167  -14.697510   11.412551    0.000000    1.485000
   471  Cl    c    -4.293709  -14.367927    1.498026    0.000000    1.485000
   472  Cl    c     2.005717   11.059317   14.396744    0.000000    1.485000
   473  Cl    c     1.999242  -14.367085    1.500607    0.000000    1.485000
   474  Cl    c   -13.728110   -5.289951   14.397734    0.000000    1.485000
   475  Cl    c   -10.582630  -10.740461   14.399084    0.000000    1.485000
   476  Cl    c   -11.723178   -5.450736   -1.494718    0.000000    1.485000
   477  Sc    c   -15.750975   -1.827846    6.459270    0.000000    3.000000
   478  Sc    c     6.311632   10.909998    6.458404    0.000000    3.000000
   479  Sc    c     6.294739    3.634230   19.361012    0.000000    3.000000
   480  Cl    c    11.443925   -5.286652   14.400775    0.000000    1.485000
   481  Cl    c     8.294812  -10.733775   14.401707    0.000000    1.485000
   482  Cl    c    -5.150571    8.920197   -1.503673    0.000000    1.485000
   483  Cl    c    -7.438973    1.650695   -4.958358    0.000000    1.485000
   484  Cl    c     7.438511   -8.925979   -1.493850    0.000000    1.485000
   485  Cl    c     5.147143    1.649595   -4.956995    0.000000    1.485000
   486  Cl    c     1.144835    8.917033   17.862507    0.000000    1.485000
   487  Sc    c    12.589794   -0.000839   12.906976    0.000000    3.000000
   488  Cl    c    -1.143172    5.615074   -4.959640    0.000000    1.485000
   489  Cl    c    -7.438411   -5.283623   -4.957996    0.000000    1.485000
   490  Cl    c   -11.442794    1.980699   17.861202    0.000000    1.485000
   491  Cl    c    -0.863645    5.449716   20.853815    0.000000    1.485000
   492  Sc    c    -6.293063  -14.538286   12.905462    0.000000    3.000000
   493  Cl    c   -14.603592    3.792021    4.957497    0.000000    1.485000
   494  Sc    c    12.589412   -3.633701   12.905817    0.000000    3.000000
   495  Cl    c     0.871143   12.727159    4.957607    0.000000    1.485000
   496  Cl    c     5.147802   -5.282402   -4.956340    0.000000    1.485000
   497  Cl    c    -7.155413   -5.451291   20.855191    0.000000    1.485000
   498  Sc    c   -12.587437  -10.909057    6.455744    0.000000    3.000000
   499  Cl    c     7.149604    5.450832   17.862247    0.000000    1.485000
   500  Cl    c     1.147438   12.554186   11.407266    0.000000    1.485000
   501  Sc    c    12.594475    3.629645    6.456918    0.000000    3.000000
   502  Cl    c   -14.594084   -7.107565    4.954892    0.000000    1.485000
   503  Sc    c     6.293269   -7.269245   19.361238    0.000000    3.000000
   504  Cl    c    10.305410    7.269013    4.954985    0.000000    1.485000
   505  Cl    c     1.141618  -12.877252   -1.491904    0.000000    1.485000
   506  Cl    c    -7.433769    1.975505   20.850431    0.000000    1.485000
   507  Sc    c   -12.591224    3.636325   -0.000735    0.000000    3.000000
   508  Cl    c     5.152641    1.977802   20.854616    0.000000    1.485000
   509  Cl    c    -8.301974    7.427040   -1.495956    0.000000    1.485000
   510  Cl    c    -1.142497   -8.921887   20.855737    0.000000    1.485000
   511  Sc    c    -3.147067    1.817367   -6.459247    0.000000    3.000000
   512  Cl    c    11.726214   -5.451068    1.493022    0.000000    1.485000
   513  Cl    c    -1.142055  -16.514218    7.946199    0.000000    1.485000
   514  Cl    c    11.725931   -9.085722    7.946113    0.000000    1.485000
   515  Cl    c     8.581167  -10.899787    1.496292    0.000000    1.485000
   516  Cl    c    10.299686   -0.000263   -1.499746    0.000000    1.485000
   517  Sc    c    -3.146534  -16.365181    6.451741    0.000000    3.000000
   518  Sc    c    12.599151   -7.274431    6.452782    0.000000    3.000000
   519  Cl    c    -4.287765  -14.693714   14.398744    0.000000    1.485000
   520  Cl    c    -1.145101   -9.246118   -4.958377    0.000000    1.485000
   521  Cl    c     2.006172  -14.693782   14.398249    0.000000    1.485000
   522  Cl    c    -8.297690   11.063751   11.407646    0.000000    1.485000
   523  Sc    c    -3.146982   -5.451485   -6.457113    0.000000    3.000000
   524  Sc    c   -12.588002   -7.269431   -0.003112    0.000000    3.000000
   525  Cl    c   -11.726903   -5.448750   17.863787    0.000000    1.485000
   526  Cl    c    13.443469   -1.816745   11.406774    0.000000    1.485000
   527  Cl    c     5.428921   -5.451924   20.853982    0.000000    1.485000
   528  Cl    c    -5.147897    8.916166   17.862238    0.000000    1.485000
   529  Cl    c    10.581834    7.105791   11.409568    0.000000    1.485000
   530  Cl    c     7.436953   -8.919053   17.862337    0.000000    1.485000
   531  Cl    c   -14.873297    3.634446   11.412574    0.000000    1.485000
   532  Sc    c   -15.737349   -5.456554    6.454125    0.000000    3.000000
   533  Sc    c     9.447403    9.083840    6.455390    0.000000    3.000000
   534  Cl    c    -8.574390  -10.902167   -1.493506    0.000000    1.485000
   535  Cl    c    -5.146361   12.551819   11.404504    0.000000    1.485000
   536  Cl    c    10.582967   -3.475537   -1.493538    0.000000    1.485000
   537  Cl    c     1.146846  -16.187609   11.408219    0.000000    1.485000
   538  Cl    c    -8.576740  -14.535127    4.961325    0.000000    1.485000
   539  Sc    c     0.000067  -14.536352   -0.000672    0.000000    3.000000
   540  Sc    c     9.444785   -9.085191    0.000684    0.000000    3.000000
   541  Cl    c    13.730089   -1.657164    4.961386    0.000000    1.485000
   542  Cl    c    -5.154164  -12.878056   -1.493499    0.000000    1.485000
   543  Cl    c     1.144122  -12.880855   17.863674    0.000000    1.485000
   544  Cl    c   -14.871869   -7.265254   11.411771    0.000000    1.485000
   545  Cl    c    -8.294626    7.431088   17.862571    0.000000    1.485000
   546  Cl    c   -11.446897    9.248812    4.951505    0.000000    1.485000
   547  Cl    c    -5.432669   12.721813    4.951722    0.000000    1.485000
   548  Cl    c    10.584119  -10.738471   11.408082    0.000000    1.485000
   549  Cl    c    10.295111    0.000289   17.862067    0.000000    1.485000
   550  Cl    c   -11.438631  -12.552383    4.953928    0.000000    1.485000
   551  Cl    c    13.443074    1.813912    4.953924    0.000000    1.485000
   552  Cl    c    -8.297022  -14.696541   11.410604    0.000000    1.485000
   553  Sc    c   -12.591833    7.268492   12.904659    0.000000    3.000000
   554  Sc    c    -6.293988    0.000209   -6.455882    0.000000    3.000000
   555  Sc    c    -3.146747   12.719765   12.905628    0.000000    3.000000
   556  Cl    c     1.142739  -16.512059    4.964755    0.000000    1.485000
   557  Cl    c    10.580851  -11.062916    4.964862    0.000000    1.485000
   558  Sc    c    -6.293823   -3.634424   -6.457254    0.000000    3.000000
   559  Sc    c     3.147140    1.816762   -6.457287    0.000000    3.000000
   560  Sc    c    -6.293685    7.267877   19.361979    0.000000    3.000000
   561  Sc    c     3.147088  -16.364466    6.460222    0.000000    3.000000
   562  Sc    c     6.294173   10.903095   12.907993    0.000000    3.000000
   563  Sc    c     9.451707  -12.724552    6.461502    0.000000    3.000000
   564  Cl    c   -11.725530    9.083504   11.410737    0.000000    1.485000
   565  Sc    c     3.147083   -5.451047   -6.455354    0.000000    3.000000
   566  Cl    c    -5.145971  -16.185498   11.407095    0.000000    1.485000
   567  Cl    c    -8.580450  -10.899099   17.863188    0.000000    1.485000
   568  Cl    c    10.583350   -3.468602   17.862797    0.000000    1.485000
   569  Cl    c    -7.160859   12.716966    7.945504    0.000000    1.485000
   570  Cl    c   -10.580306   10.743883    7.945418    0.000000    1.485000
   571  Sc    c   -12.589909  -10.902512   12.906664    0.000000    3.000000
   572  Cl    c   -13.441803    5.452497    1.499907    0.000000    1.485000
   573  Cl    c    -5.149782  -12.880521   17.863460    0.000000    1.485000
   574  Cl    c   -16.596017   -3.646492    7.958396    0.000000    1.485000
   575  Cl    c     8.308448   10.732866    7.958580    0.000000    1.485000
   576  Cl    c    -1.144888   12.551950   14.402950    0.000000    1.485000
   577  Sc    c     9.440931   -1.816941   19.360975    0.000000    3.000000
   578  Cl    c    13.728807    1.653240   11.410019    0.000000    1.485000
   579  Sc    c    -9.442757    9.086165   -0.002165    0.000000    3.000000
   580  Sc    c    -3.145973  -16.353192   12.907882    0.000000    3.000000
   581  Cl    c    -2.282833   10.904903   -1.496791    0.000000    1.485000
   582  Cl    c    -5.150167  -16.515938    4.956187    0.000000    1.485000
   583  Cl    c    13.730753   -5.615045    4.956073    0.000000    1.485000
   584  Cl    c   -11.442898   -8.920434   -1.499420    0.000000    1.485000
   585  Cl    c   -11.724579  -12.716384   11.411006    0.000000    1.485000
   586  Sc    c     6.294760  -14.537727   12.906516    0.000000    3.000000
   587  Cl    c    13.729761   -5.287433   11.409831    0.000000    1.485000
   588  Cl    c   -16.881474   -0.166485    7.953465    0.000000    1.485000
   589  Cl    c     5.438093   12.718919    7.953653    0.000000    1.485000
   590  Sc    c   -15.737742    1.818190   12.906690    0.000000    3.000000
   591  Sc    c     3.148846   12.720147   12.907300    0.000000    3.000000
   592  Cl    c   -11.722713    5.451243   -1.492471    0.000000    1.485000
   593  Sc    c    -3.146605    9.084580   19.361097    0.000000    3.000000
   594  Cl    c   -10.304631  -14.542379    7.951297    0.000000    1.485000
   595  Cl    c    14.598811   -0.163515    7.951335    0.000000    1.485000
   596  Cl    c    -4.292231    7.097916   -4.954345    0.000000    1.485000
   597  Cl    c    -1.142226   12.876793    1.492795    0.000000    1.485000
   598  Cl    c     1.999631    7.097918   -4.955056    0.000000    1.485000
   599  Cl    c    -2.001869  -14.371947   -1.498501    0.000000    1.485000
   600  Cl    c   -13.728926   -8.919560    1.496194    0.000000    1.485000
   601  Sc    c   -15.737911   -5.451755   12.908209    0.000000    3.000000
   602  Cl    c    10.583113    3.474166   -1.494669    0.000000    1.485000
   603  Cl    c   -13.728232    5.609396   14.397870    0.000000    1.485000
   604  Cl    c    11.444488   -8.915276    1.499291    0.000000    1.485000
   605  Cl    c    11.443518    5.611492   14.399372    0.000000    1.485000
   606  Sc    c    -9.441736  -12.721160   -0.002457    0.000000    3.000000
   607  Cl    c    -7.156406    5.449225   20.853647    0.000000    1.485000
   608  Cl    c   -10.301143   -0.000342   20.854402    0.000000    1.485000
   609  Cl    c    -1.143439  -16.185858   14.404308    0.000000    1.485000
   610  Cl    c    -2.005142    0.159708   -7.950171    0.000000    1.485000
   611  Cl    c     0.863118   -1.816527   -7.950548    0.000000    1.485000
   612  Sc    c    -6.295356  -14.537531   -0.001128    0.000000    3.000000
   613  Sc    c    12.591031   -3.635120   -0.001134    0.000000    3.000000
   614  Sc    c    -9.441350   -9.084983   19.361991    0.000000    3.000000
   615  Sc    c     9.440975    1.816848   19.362215    0.000000    3.000000
   616  Cl    c    -2.006428   -3.793699   -7.949480    0.000000    1.485000
   617  Cl    c    -7.435997    5.613660   -4.956806    0.000000    1.485000
   618  Cl    c   -10.582414    0.165246   -4.957313    0.000000    1.485000
   619  Cl    c    11.722543    5.448475    1.492740    0.000000    1.485000
   620  Cl    c     5.148199    5.615454   -4.956163    0.000000    1.485000
   621  Cl    c    -2.288765   10.899693   17.862220    0.000000    1.485000
   622  Cl    c     8.293849    0.166997   -4.954909    0.000000    1.485000
   623  Cl    c    -4.291622  -10.731187   -4.954209    0.000000    1.485000
   624  Cl    c    -0.860632  -16.350626    1.496077    0.000000    1.485000
   625  Cl    c     2.000627  -10.729783   -4.953228    0.000000    1.485000
   626  Cl    c   -11.439272   -8.915072   17.859294    0.000000    1.485000
   627  Cl    c   -13.727497   -9.242360   14.398034    0.000000    1.485000
   628  Sc    c    -3.146981  -12.719162   19.360571    0.000000    3.000000
   629  Cl    c   -10.582957   -3.797832   -4.957705    0.000000    1.485000
   630  Cl    c     8.292906   -3.800065   -4.955029    0.000000    1.485000
   631  Cl    c    11.443265   -9.242945   14.397746    0.000000    1.485000
   632  Sc    c    -3.146653    5.451273   -6.455813    0.000000    3.000000
   633  Cl    c    -4.287432    7.426764   20.853586    0.000000    1.485000
   634  Cl    c    10.581871   -7.426617   -1.492709    0.000000    1.485000
   635  Cl    c     2.006201    7.427582   20.853636    0.000000    1.485000
   636  Cl    c   -10.581626   -3.473490   20.853368    0.000000    1.485000
   637  Cl    c    -7.435577   -8.923028   20.854896    0.000000    1.485000
   638  Sc    c     3.148331  -16.354138   12.907813    0.000000    3.000000
   639  Cl    c     8.298876   -3.471856   20.855815    0.000000    1.485000
   640  Cl    c   -11.725860    5.450435   17.862834    0.000000    1.485000
   641  Cl    c    -7.434306  -16.507988    7.944082    0.000000    1.485000
   642  Cl    c     5.150275   -8.922217   20.856524    0.000000    1.485000
   643  Cl    c    14.866651   -3.633420    7.944063    0.000000    1.485000
   644  Cl    c     5.429212    5.450111   20.853522    0.000000    1.485000
   645  Cl    c     5.150795  -16.518981    7.954655    0.000000    1.485000
   646  Cl    c     8.583630  -14.537988    7.954679    0.000000    1.485000
[...]
   1216 z         -5.189744     -5.185411     0.004333    Cartesian   -0.08
   1217 x          1.211574      1.210289    -0.001285    Cartesian   -0.11
   1217 y         -5.169281     -5.170754    -0.001473    Cartesian    0.03
   1217 z         -7.716029     -7.716170    -0.000141    Cartesian    0.00
   1218 x         -4.357940     -4.359142    -0.001202    Cartesian    0.03
   1218 y        -10.619469    -10.613785     0.005684    Cartesian   -0.05
   1218 z         -5.189744     -5.186074     0.003671    Cartesian   -0.07
   1219 x          8.716333      8.712292    -0.004040    Cartesian   -0.05
   1219 y         -0.000261     -0.000570    -0.000309    Cartesian  118.16
   1219 z         20.621802     20.620636    -0.001166    Cartesian   -0.01
   1220 x         -2.422696     -2.424290    -0.001595    Cartesian    0.07
   1220 y         10.901161     10.898794    -0.002367    Cartesian   -0.02
   1220 z         18.095518     18.093831    -0.001687    Cartesian   -0.01
   1221 x          8.229334      8.225415    -0.003919    Cartesian   -0.05
   1221 y          0.281430      0.283859     0.002428    Cartesian    0.86
   1221 z         -5.189744     -5.186652     0.003093    Cartesian   -0.06
   1222 x         -5.569514     -5.566121     0.003393    Cartesian   -0.06
   1222 y         -1.816555     -1.816448     0.000107    Cartesian   -0.01
   1222 z         -7.716029     -7.714629     0.001400    Cartesian   -0.02
   1223 x         11.863151     11.858399    -0.004752    Cartesian   -0.04
   1223 y          5.450188      5.448273    -0.001915    Cartesian   -0.04
   1223 z          1.263142      1.261485    -0.001657    Cartesian   -0.13
   1224 x          5.082516      5.079829    -0.002686    Cartesian   -0.05
   1224 y          5.731880      5.732316     0.000436    Cartesian    0.01
   1224 z         -5.189744     -5.187479     0.002265    Cartesian   -0.04
   1225 x         -1.935244     -1.933120     0.002124    Cartesian   -0.11
   1225 y        -14.253364    -14.247525     0.005839    Cartesian   -0.04
   1225 z         18.095518     18.091705    -0.003813    Cartesian   -0.02
   1226 x          5.082063      5.081508    -0.000555    Cartesian   -0.01
   1226 y        -16.632518    -16.635915    -0.003397    Cartesian    0.02
   1226 z          7.716029      7.721195     0.005166    Cartesian    0.07
   1227 x          8.716333      8.719528     0.003195    Cartesian    0.04
   1227 y        -14.534794    -14.536037    -0.001243    Cartesian    0.01
   1227 z          7.716029      7.721224     0.005196    Cartesian    0.07
   1228 x          8.228881      8.224771    -0.004110    Cartesian   -0.05
   1228 y         -3.914802     -3.917045    -0.002244    Cartesian    0.06
   1228 z         -5.189744     -5.186663     0.003081    Cartesian   -0.06
   1229 x        -10.651577    -10.650070     0.001507    Cartesian   -0.01
   1229 y          0.281430      0.282528     0.001098    Cartesian    0.39
   1229 z         -5.189744     -5.188310     0.001435    Cartesian   -0.03
   1230 x        -14.522519    -14.525397    -0.002879    Cartesian    0.02
   1230 y         -3.352464     -3.353699    -0.001234    Cartesian    0.04
   1230 z         -1.263142     -1.262998     0.000144    Cartesian   -0.01
   1231 x         -7.504758     -7.503608     0.001151    Cartesian   -0.02
   1231 y          5.731880      5.730993    -0.000887    Cartesian   -0.02
   1231 z         -5.189744     -5.187590     0.002155    Cartesian   -0.04
   1232 x         -7.505211     -7.502383     0.002828    Cartesian   -0.04
   1232 y        -16.632518    -16.626237     0.006280    Cartesian   -0.04
   1232 z          7.716029      7.712205    -0.003824    Cartesian   -0.05
   1233 x         15.009970     15.003094    -0.006876    Cartesian   -0.05
   1233 y         -3.633895     -3.633199     0.000695    Cartesian   -0.02
   1233 z          7.716029      7.712194    -0.003835    Cartesian   -0.05
   1234 x          3.870942      3.874664     0.003722    Cartesian    0.10
   1234 y         10.901161     10.902590     0.001429    Cartesian    0.01
   1234 z         -1.263142     -1.261666     0.001476    Cartesian   -0.12
   1235 x        -10.652030    -10.650367     0.001663    Cartesian   -0.02
   1235 y         -3.914802     -3.915219    -0.000417    Cartesian    0.01
   1235 z         -5.189744     -5.188625     0.001119    Cartesian   -0.02
   1236 x        -14.522971    -14.523047    -0.000075    Cartesian    0.00
   1236 y          6.985836      6.982726    -0.003110    Cartesian   -0.04
   1236 z         11.642631     11.639915    -0.002716    Cartesian   -0.02
   1237 x          7.504758      7.501017    -0.003742    Cartesian   -0.05
   1237 y          8.802653      8.804452     0.001800    Cartesian    0.02
   1237 z         -1.263142     -1.260147     0.002996    Cartesian   -0.24
   1238 x         10.651577     10.650038    -0.001539    Cartesian   -0.01
   1238 y          3.352203      3.349788    -0.002415    Cartesian   -0.07
   1238 z         18.095518     18.094042    -0.001475    Cartesian   -0.01
   1239 x        -11.863151    -11.861375     0.001776    Cartesian   -0.01
   1239 y          5.450711      5.449678    -0.001034    Cartesian   -0.02
   1239 z         18.095518     18.093912    -0.001606    Cartesian   -0.01
   1240 x         -5.082516     -5.083135    -0.000619    Cartesian    0.01
   1240 y          1.535386      1.536307     0.000921    Cartesian    0.06
   1240 z         -7.716029     -7.716575    -0.000547    Cartesian    0.01
   1241 x          5.082063      5.079733    -0.002330    Cartesian   -0.05
   1241 y         -9.365251     -9.364971     0.000280    Cartesian   -0.00
   1241 z         -5.189744     -5.188058     0.001686    Cartesian   -0.03
   1242 x         -1.211574     -1.210981     0.000594    Cartesian   -0.05
   1242 y          8.802914      8.802471    -0.000443    Cartesian   -0.01
   1242 z         20.621802     20.622239     0.000437    Cartesian    0.00
   1243 x         -7.505211     -7.504101     0.001110    Cartesian   -0.01
   1243 y         -9.365251     -9.363802     0.001449    Cartesian   -0.02
   1243 z         -5.189744     -5.188013     0.001731    Cartesian   -0.03
   1244 x         -5.082063     -5.082205    -0.000142    Cartesian    0.00
   1244 y         -5.169281     -5.169827    -0.000546    Cartesian    0.01
   1244 z         -7.716029     -7.716787    -0.000758    Cartesian    0.01
   1245 x         -1.935244     -1.932050     0.003194    Cartesian   -0.17
   1245 y        -17.886997    -17.890208    -0.003211    Cartesian    0.02
   1245 z          5.189744      5.186989    -0.002756    Cartesian   -0.05
   1246 x         13.311397     13.312524     0.001127    Cartesian    0.01
   1246 y         -9.083821     -9.088274    -0.004453    Cartesian    0.05
   1246 z          5.189744      5.186920    -0.002824    Cartesian   -0.05
   1247 x         -2.422696     -2.419892     0.002804    Cartesian   -0.12
   1247 y          3.633895      3.633705    -0.000189    Cartesian   -0.01
   1247 z         -7.716029     -7.715926     0.000103    Cartesian   -0.00
   1248 x        -14.522519    -14.519764     0.002754    Cartesian   -0.02
   1248 y        -10.619731    -10.615458     0.004272    Cartesian   -0.04
   1248 z         11.642631     11.639037    -0.003594    Cartesian   -0.03
   1249 x          4.358393      4.358073    -0.000320    Cartesian   -0.01
   1249 y        -14.253364    -14.255340    -0.001976    Cartesian    0.01
   1249 z         -1.263142     -1.261831     0.001311    Cartesian   -0.10
   1250 x          1.935697      1.932666    -0.003031    Cartesian   -0.16
   1250 y        -17.886735    -17.892940    -0.006205    Cartesian    0.03
   1250 z          7.716029      7.721640     0.005611    Cartesian    0.07
   1251 x         11.376153     11.383016     0.006863    Cartesian    0.06
   1251 y        -12.436286    -12.436740    -0.000454    Cartesian    0.00
   1251 z          7.716029      7.721716     0.005687    Cartesian    0.07
   1252 x         -4.357940     -4.358389    -0.000449    Cartesian    0.01
   1252 y        -17.886735    -17.890994    -0.004259    Cartesian    0.02
   1252 z          7.716029      7.717320     0.001291    Cartesian    0.02
   1253 x         14.522971     14.526836     0.003864    Cartesian    0.03
   1253 y         -6.985836     -6.987601    -0.001765    Cartesian    0.03
   1253 z          7.716029      7.717235     0.001207    Cartesian    0.02
   1254 x          8.228881      8.228458    -0.000423    Cartesian   -0.01
   1254 y          3.352464      3.352849     0.000385    Cartesian    0.01
   1254 z         20.621802     20.622185     0.000383    Cartesian    0.00
   1255 x          5.082063      5.080431    -0.001632    Cartesian   -0.03
   1255 y         12.436547     12.432674    -0.003873    Cartesian   -0.03
   1255 z         14.168915     14.171583     0.002667    Cartesian    0.02
   1256 x        -13.798396    -13.795795     0.002601    Cartesian   -0.02
   1256 y        -12.436286    -12.440992    -0.004707    Cartesian    0.04
   1256 z          7.716029      7.716735     0.000706    Cartesian    0.01
   1257 x         -2.422696     -2.422289     0.000407    Cartesian   -0.02
   1257 y         14.534794     14.532254    -0.002540    Cartesian   -0.02
   1257 z         11.642631     11.641686    -0.000945    Cartesian   -0.01
   1258 x         14.522971     14.525817     0.002846    Cartesian    0.02
   1258 y          3.915063      3.910364    -0.004699    Cartesian   -0.12
   1258 z          7.716029      7.716648     0.000620    Cartesian    0.01
   1259 x        -10.652030    -10.648734     0.003296    Cartesian   -0.03
   1259 y          3.352464      3.353903     0.001439    Cartesian    0.04
   1259 z         20.621802     20.617520    -0.004282    Cartesian   -0.02
   1260 x         -2.422696     -2.419739     0.002956    Cartesian   -0.12
   1260 y         -7.267005     -7.266544     0.000461    Cartesian   -0.01
   1260 z         -7.716029     -7.715667     0.000361    Cartesian   -0.00
   1261 x        -14.522971    -14.519528     0.003443    Cartesian   -0.02
   1261 y        -11.182329    -11.179474     0.002856    Cartesian   -0.03
   1261 z          5.189744      5.192716     0.002971    Cartesian    0.06
   1262 x         -7.505211     -7.502981     0.002230    Cartesian   -0.03
   1262 y         12.436547     12.434008    -0.002539    Cartesian   -0.02
   1262 z         14.168915     14.165850    -0.003065    Cartesian   -0.02
   1263 x         13.798396     13.794238    -0.004158    Cartesian   -0.03
   1263 y          5.169020      5.167460    -0.001560    Cartesian   -0.03
   1263 z          5.189744      5.192684     0.002939    Cartesian    0.06
   1264 x          4.358393      4.356087    -0.002306    Cartesian   -0.05
   1264 y          0.281169      0.278379    -0.002790    Cartesian   -0.99
   1264 z         -7.716029     -7.714633     0.001396    Cartesian   -0.02
   1265 x        -16.945214    -16.940962     0.004252    Cartesian   -0.03
   1265 y         -6.985836     -6.992085    -0.006249    Cartesian    0.09
   1265 z          7.716029      7.714860    -0.001168    Cartesian   -0.02
   1266 x        -15.009970    -15.005064     0.004906    Cartesian   -0.03
   1266 y          7.267528      7.265103    -0.002424    Cartesian   -0.03
   1266 z          5.189744      5.192038     0.002293    Cartesian    0.04
   1267 x         11.376153     11.379501     0.003348    Cartesian    0.03
   1267 y          9.365513      9.358652    -0.006861    Cartesian   -0.07
   1267 z          7.716029      7.714856    -0.001173    Cartesian   -0.02
   1268 x         -1.935244     -1.935569    -0.000324    Cartesian    0.02
   1268 y         14.815701     14.810190    -0.005511    Cartesian   -0.04
   1268 z          5.189744      5.192059     0.002315    Cartesian    0.04
   1269 x        -15.009970    -15.005072     0.004898    Cartesian   -0.03
   1269 y          0.000261      0.000084    -0.000178    Cartesian  -67.95
   1269 z         -1.263142     -1.259488     0.003654    Cartesian   -0.29
   1270 x         10.651577     10.649186    -0.002391    Cartesian   -0.02
   1270 y         -7.548696     -7.546977     0.001719    Cartesian   -0.02
   1270 z         18.095518     18.094464    -0.001053    Cartesian   -0.01
   1271 x          4.357940      4.355248    -0.002692    Cartesian   -0.06
   1271 y         -3.915063     -3.912185     0.002878    Cartesian   -0.07
   1271 z         -7.716029     -7.714315     0.001714    Cartesian   -0.02
   1272 x        -17.669337    -17.676330    -0.006993    Cartesian    0.04
   1272 y         -1.535648     -1.544219    -0.008571    Cartesian    0.56
   1272 z          5.189744      5.192516     0.002771    Cartesian    0.05
   1273 x        -16.945214    -16.940908     0.004306    Cartesian   -0.03
   1273 y          3.915063      3.911676    -0.003387    Cartesian   -0.09
   1273 z          7.716029      7.714119    -0.001910    Cartesian   -0.02
   1274 x        -10.164579    -10.157606     0.006973    Cartesian   -0.07
   1274 y          3.633372      3.632088    -0.001283    Cartesian   -0.04
   1274 z         -5.189744     -5.185210     0.004534    Cartesian   -0.09
   1275 x         -1.935697     -1.933741     0.001956    Cartesian   -0.10
   1275 y         -0.281430     -0.284832    -0.003402    Cartesian    1.21
   1275 z         24.548404     24.544447    -0.003957    Cartesian   -0.02
   1276 x          1.935697      1.936504     0.000807    Cartesian    0.04
   1276 y         14.815962     14.810484    -0.005479    Cartesian   -0.04
   1276 z          7.716029      7.714117    -0.001911    Cartesian   -0.02
   1277 x          7.017760      7.028594     0.010834    Cartesian    0.15
   1277 y         12.717977     12.719595     0.001618    Cartesian    0.01
   1277 z          5.189744      5.192712     0.002967    Cartesian    0.06
   1278 x        -13.798396    -13.791404     0.006992    Cartesian   -0.05
   1278 y          9.365513      9.357821    -0.007692    Cartesian   -0.08
   1278 z          7.716029      7.711363    -0.004666    Cartesian   -0.06
   1279 x         -4.357940     -4.354770     0.003170    Cartesian   -0.07
   1279 y         14.815962     14.806087    -0.009875    Cartesian   -0.07
   1279 z          7.716029      7.711387    -0.004642    Cartesian   -0.06
   1280 x        -16.458216    -16.452446     0.005770    Cartesian   -0.04
   1280 y         -0.000261      0.000267     0.000528    Cartesian -202.07
   1280 z          1.263142      1.266621     0.003479    Cartesian    0.28
   1281 x        -10.164579    -10.157908     0.006671    Cartesian   -0.07
   1281 y         10.900638     10.898035    -0.002603    Cartesian   -0.02
   1281 z          1.263142      1.267447     0.004305    Cartesian    0.34
   1282 x         -2.422696     -2.425520    -0.002824    Cartesian    0.12
   1282 y         -3.633372     -3.633288     0.000083    Cartesian   -0.00
   1282 z         24.548404     24.544617    -0.003788    Cartesian   -0.02
   1283 x          1.211574      1.212968     0.001394    Cartesian    0.12
   1283 y         -1.535648     -1.533147     0.002501    Cartesian   -0.16
   1283 z         24.548404     24.544611    -0.003793    Cartesian   -0.02
   1284 x        -10.164579    -10.158137     0.006442    Cartesian   -0.06
   1284 y         -7.267528     -7.266076     0.001452    Cartesian   -0.02
   1284 z         -5.189744     -5.185485     0.004260    Cartesian   -0.08
   1285 x        -14.522519    -14.518328     0.004191    Cartesian   -0.03
   1285 y         -3.352464     -3.348726     0.003738    Cartesian   -0.11
   1285 z         18.095518     18.091754    -0.003764    Cartesian   -0.02
   1286 x         -0.724123     -0.721520     0.002603    Cartesian   -0.36
   1286 y          9.083821      9.081452    -0.002369    Cartesian   -0.03
   1286 z         -5.189744     -5.187051     0.002693    Cartesian   -0.05
   1287 x          3.870942      3.866770    -0.004172    Cartesian   -0.11
   1287 y         10.901161     10.899160    -0.002000    Cartesian   -0.02
   1287 z         18.095518     18.092375    -0.003143    Cartesian   -0.02
   1288 x          7.504758      7.504119    -0.000639    Cartesian   -0.01
   1288 y         12.436286     12.431919    -0.004366    Cartesian   -0.04
   1288 z         11.642631     11.640359    -0.002272    Cartesian   -0.02
   1289 x          7.504758      7.504688    -0.000070    Cartesian   -0.00
   1289 y          8.802653      8.798279    -0.004374    Cartesian   -0.05
   1289 z         18.095518     18.092625    -0.002893    Cartesian   -0.02
   1290 x          7.504758      7.499879    -0.004879    Cartesian   -0.07
   1290 y        -12.999146    -12.991922     0.007224    Cartesian   -0.06
   1290 z         -1.263142     -1.257564     0.005578    Cartesian   -0.44
   1291 x         -2.422696     -2.421994     0.000702    Cartesian   -0.03
   1291 y        -18.167904    -18.165089     0.002815    Cartesian   -0.02
   1291 z         11.642631     11.642220    -0.000411    Cartesian   -0.00
   1292 x         13.798849     13.793573    -0.005275    Cartesian   -0.04
   1292 y          5.731618      5.727260    -0.004358    Cartesian   -0.08
   1292 z         11.642631     11.644245     0.001614    Cartesian    0.01
   1293 x         -5.082063     -5.079850     0.002213    Cartesian   -0.04
   1293 y         -1.535648     -1.532293     0.003355    Cartesian   -0.22
   1293 z         24.548404     24.544049    -0.004356    Cartesian   -0.02
   1294 x          0.724123      0.720137    -0.003986    Cartesian   -0.55
   1294 y          1.817078      1.816896    -0.000182    Cartesian   -0.01
   1294 z         24.548404     24.544077    -0.004327    Cartesian   -0.02
   1295 x         -0.724123     -0.721674     0.002449    Cartesian   -0.34
   1295 y        -12.717977    -12.715586     0.002391    Cartesian   -0.02
   1295 z         -5.189744     -5.186398     0.003346    Cartesian   -0.06
   1296 x          8.716333      8.713790    -0.002542    Cartesian   -0.03
   1296 y          3.633372      3.632511    -0.000860    Cartesian   -0.02
   1296 z         -5.189744     -5.188144     0.001601    Cartesian   -0.03
--------------------------------------------------------------------------------


  Time to end of optimisation  =      377.8889 seconds


  Peak dynamic memory used =     246.42 MB 


  Timing analysis for GULP :

--------------------------------------------------------------------------------
  Task / Subroutine                                          Time (Seconds)
--------------------------------------------------------------------------------
  Calculation of reciprocal space energy and derivatives          0.0038
  Calculation of reciprocal space energy using symmetry           0.0369
  Calculation of real space energy and derivatives                0.0147
  Calculation of real space energy using symmetry                 0.6583
  Calculation for region 1 energy and derivatives (2-b)         116.9390
  Calculation for region 2a energy                               84.1908
  Calculation for region 2b energy                                0.0138
  Calculation and manipulation of Hessian matrix                  0.0881
  Calculation of matrix inversion                               173.9510
  Symmetry generation of equivalent positions                     0.0015
  Global summation overhead                                       0.0002
--------------------------------------------------------------------------------
  Total CPU time                                                377.8890
--------------------------------------------------------------------------------


  Dump file written as ScCl3.grs



  **** GULP has completed with   2 warnings - beware! ****

  Job Finished at 11:39.15 18th August     2021                               

