********************************************************************************
*                       GENERAL UTILITY LATTICE PROGRAM                        *
*                                 Julian Gale                                  *
*                       Curtin Institute for Computation                       *
*                    School of Molecular and Life Sciences                     *
*                    Curtin University, Western Australia                      *
********************************************************************************
* Version = 5.2.0 * Last modified =  10th September 2020                       *
********************************************************************************
*  optimise     - perform optimisation run                                     *
*  conp         - constant pressure calculation                                *
*  property     - calculate properties for final geometry                      *
*  defect       - perform defect calculation after bulk run                    *
*  compare      - compare initial and final structures                         *
********************************************************************************

  Job Started  at 11:34.02 18th August     2021                               

  Number of CPUs =     1


  Total number of configurations input =      1

********************************************************************************
*  Input for Configuration =   1                                               *
********************************************************************************

  Formula = Sc2Cl6                                                      

  Number of irreducible atoms/shells =       3


  Total number atoms/shells =      14

  Dimensionality = 3               :  Bulk   


  Symmetry :

  Crystal family                   :  Hexagonal   
  Crystal class  (Groth - 1921)    :  Trigonal Rhombohedral                

  Space group (centrosymmetric)    :  R -3            

  Patterson group                  :  R -3     

  Cartesian lattice vectors (Angstroms) :

        3.246588    1.874418    6.441540
       -3.246588    1.874418    6.441540
        0.000000   -3.748837    6.441540

  Cell parameters (Angstroms/Degrees):

  a =       7.4530    alpha =  51.6480
  b =       7.4530    beta  =  51.6480
  c =       7.4530    gamma =  51.6480

  Initial cell volume =         235.198534 Angs**3

  Temperature of configuration =   0.00     K 

  Pressure of configuration =         0.000 GPa 

  Fractional coordinates of asymmetric unit :

--------------------------------------------------------------------------------
   No.  Atomic       x           y          z         Charge      Occupancy
        Label      (Frac)      (Frac)     (Frac)        (e)         (Frac)  
--------------------------------------------------------------------------------
      1 Sc    c    0.333900    0.333900    0.333900 *   3.00000    1.000000    
      2 Cl    c    0.073700 *  0.443900 *  0.705300 *   1.48500    1.000000    
      3 Cl    s    0.073700 *  0.443900 *  0.705300 *  -2.48500    1.000000    
--------------------------------------------------------------------------------


  Constraints : 

--------------------------------------------------------------------------------
  Constraint no.      Unconstrained     Constrained    Coefficient    Offset
                         Variable         Variable
--------------------------------------------------------------------------------
           1              Strain 1        Strain 2       1.00000      0.0000
--------------------------------------------------------------------------------


********************************************************************************
*  General input information                                                   *
********************************************************************************

  Species output for all configurations : 

--------------------------------------------------------------------------------
  Species    Type    Atomic    Atomic    Charge       Radii (Angs)     Library
                     Number     Mass       (e)     Cova   Ionic  VDW   Symbol
--------------------------------------------------------------------------------
    Sc       Core       21      44.96   3.000000   1.440  0.000  2.150          
    Cl       Core       17      35.45   1.485000   0.990  0.000  1.650          
    Cl       Shell      17       0.00  -2.485000   0.990  0.000  1.650          
--------------------------------------------------------------------------------


  Lattice summation method               =    Ewald          (3-D)
                                         =    Parry          (2-D)
                                         =    Saunders et al (1-D)
  Accuracy factor for lattice sums       =   12.000


  Analytic derivatives to be used

  Time limit = Infinity

  Maximum range for interatomic potentials =    100000.000000 Angstroms

  General interatomic potentials :

--------------------------------------------------------------------------------
Atom  Types   Potential      Parameter       Value         Units   Cutoffs(Ang)
  1     2                                                            Min /  Max 
--------------------------------------------------------------------------------
Cl   c Cl   s Spring (c-s)  Spring k 2       29.380000    eV*Ang^-2 0.000  0.800
                            Spring k 4       0.0000000    eV*Ang^-4 
--------------------------------------------------------------------------------
Sc   c Cl   s Buckingham    Buckingham A     12131.350    eV        0.000 12.000
                            Buckingham rho  0.25070000    Ang       
                            Buckingham C     0.0000000    eV*Ang^6  
--------------------------------------------------------------------------------
Cl   s Cl   s Buckingham    Buckingham A     1227.2000    eV        0.000 12.000
                            Buckingham rho  0.32100000    Ang       
                            Buckingham C     14.530000    eV*Ang^6  
--------------------------------------------------------------------------------

********************************************************************************
*  Output for configuration   1                                                *
********************************************************************************


  Components of energy : 

--------------------------------------------------------------------------------
  Interatomic potentials     =           6.77737779 eV    
  Monopole - monopole (real) =         -30.86300284 eV    
  Monopole - monopole (recip)=         -65.52201623 eV    
  Monopole - monopole (total)=         -96.38501907 eV    
--------------------------------------------------------------------------------
  Total lattice energy : 
    Primitive unit cell      =         -89.60764128 eV    
    Non-primitive unit cell  =        -268.82292384 eV    
--------------------------------------------------------------------------------
  Total lattice energy (in kJmol-1): 
    Primitive unit cell      =           -8645.7676 kJ/(mole unit cells)
    Non-primitive unit cell  =          -25937.3028 kJ/(mole unit cells)
--------------------------------------------------------------------------------


  Number of variables =        9

  Maximum number of calculations  =          1000
  Maximum Hessian update interval =            10
  Maximum step size               =   1.000000000
  Maximum parameter tolerance     =   0.000010000
  Maximum function  tolerance     =   0.000010000
  Maximum gradient  tolerance     =   0.001000000
  Maximum gradient  component     =   0.010000000

  Symmetry constrained optimisation

  Symmetry used for second derivatives

  Cell parameters to be optimised using strains

  Newton-Raphson optimiser to be used

  BFGS hessian update to be used

  Lower half triangular hessian to be used

  Start of bulk optimisation :

  Cycle:      0 Energy:       -89.607641  Gnorm:    194.660938  CPU:    0.017
  ** Hessian calculated **
  Cycle:      1 Energy:       -99.336245  Gnorm:     16.922396  CPU:    0.032
  Cycle:      2 Energy:       -99.561570  Gnorm:      7.561347  CPU:    0.051
  Cycle:      3 Energy:       -99.729576  Gnorm:      4.412393  CPU:    0.069
  Cycle:      4 Energy:       -99.829400  Gnorm:      2.218678  CPU:    0.087
  Cycle:      5 Energy:       -99.844572  Gnorm:      0.723795  CPU:    0.103
  Cycle:      6 Energy:       -99.846381  Gnorm:      0.448826  CPU:    0.122
  Cycle:      7 Energy:       -99.846853  Gnorm:      0.344817  CPU:    0.138
  Cycle:      8 Energy:       -99.849123  Gnorm:      0.319075  CPU:    0.164
  Cycle:      9 Energy:       -99.851112  Gnorm:      0.253552  CPU:    0.187
  Cycle:     10 Energy:       -99.852597  Gnorm:      0.161985  CPU:    0.209
  ** Hessian calculated **
  Cycle:     11 Energy:       -99.854095  Gnorm:      0.114649  CPU:    0.242
  Cycle:     12 Energy:       -99.855517  Gnorm:      0.062367  CPU:    0.265
  Cycle:     13 Energy:       -99.856271  Gnorm:      0.091299  CPU:    0.284
  Cycle:     14 Energy:       -99.856398  Gnorm:      0.057833  CPU:    0.307
  Cycle:     15 Energy:       -99.709969  Gnorm:      9.382415  CPU:    0.371
  ** Hessian calculated **
  Cycle:     16 Energy:       -99.834592  Gnorm:      3.493936  CPU:    0.401
  Cycle:     17 Energy:       -99.855984  Gnorm:      0.183406  CPU:    0.417
  Cycle:     18 Energy:       -99.856377  Gnorm:      0.024886  CPU:    0.437
  ** Hessian calculated **
  Cycle:     19 Energy:       -99.856378  Gnorm:      0.010051  CPU:    0.458
  Cycle:     20 Energy:       -99.856379  Gnorm:      0.013393  CPU:    0.473
  Cycle:     21 Energy:       -99.856379  Gnorm:      0.009613  CPU:    0.489
  Cycle:     22 Energy:       -99.856380  Gnorm:      0.011718  CPU:    0.505
  Cycle:     23 Energy:       -99.856381  Gnorm:      0.013744  CPU:    0.521
  Cycle:     24 Energy:       -99.856381  Gnorm:      0.012669  CPU:    0.536
  Cycle:     25 Energy:       -99.856382  Gnorm:      0.013916  CPU:    0.552
  Cycle:     26 Energy:       -99.856383  Gnorm:      0.012516  CPU:    0.568
  Cycle:     27 Energy:       -99.856383  Gnorm:      0.006850  CPU:    0.584
  Cycle:     28 Energy:       -99.856383  Gnorm:      0.005130  CPU:    0.599
  ** Hessian calculated **
  Cycle:     29 Energy:       -99.856383  Gnorm:      0.005098  CPU:    0.621
  Cycle:     30 Energy:       -99.856383  Gnorm:      0.005050  CPU:    0.637
  Cycle:     31 Energy:       -99.856384  Gnorm:      0.004978  CPU:    0.652
  Cycle:     32 Energy:       -99.856384  Gnorm:      0.004870  CPU:    0.668
  Cycle:     33 Energy:       -99.856385  Gnorm:      0.004708  CPU:    0.683
  Cycle:     34 Energy:       -99.856385  Gnorm:      0.004465  CPU:    0.699
  Cycle:     35 Energy:       -99.856387  Gnorm:      0.004100  CPU:    0.715
  Cycle:     36 Energy:       -99.856389  Gnorm:      0.003183  CPU:    0.734
  Cycle:     37 Energy:       -99.856390  Gnorm:      0.002732  CPU:    0.753
  Cycle:     38 Energy:       -99.856390  Gnorm:      0.002622  CPU:    0.773
  ** Hessian calculated **
  Cycle:     39 Energy:       -99.856390  Gnorm:      0.002617  CPU:    0.810
  Cycle:     40 Energy:       -99.856390  Gnorm:      0.002611  CPU:    0.838
  Cycle:     41 Energy:       -99.856390  Gnorm:      0.002596  CPU:    0.865
  Cycle:     42 Energy:       -99.856390  Gnorm:      0.002573  CPU:    0.892
  Cycle:     43 Energy:       -99.856391  Gnorm:      0.002556  CPU:    0.923
  Cycle:     44 Energy:       -99.856391  Gnorm:      0.002551  CPU:    0.939
  Cycle:     45 Energy:       -99.856376  Gnorm:      0.010367  CPU:    0.985
  ** Hessian calculated **
  Cycle:     46 Energy:       -99.856376  Gnorm:      0.003162  CPU:    1.007
  Cycle:     47 Energy:       -99.856376  Gnorm:      0.004154  CPU:    1.023
  Cycle:     48 Energy:       -99.856376  Gnorm:      0.004258  CPU:    1.039
  Cycle:     49 Energy:       -99.856376  Gnorm:      0.003063  CPU:    1.055
  Cycle:     50 Energy:       -99.856376  Gnorm:      0.003213  CPU:    1.071
  Cycle:     51 Energy:       -99.856376  Gnorm:      0.002448  CPU:    1.087
  Cycle:     52 Energy:       -99.856376  Gnorm:      0.002432  CPU:    1.103
  Cycle:     53 Energy:       -99.856376  Gnorm:      0.002202  CPU:    1.119
  Cycle:     54 Energy:       -99.856376  Gnorm:      0.003030  CPU:    1.135
  Cycle:     55 Energy:       -99.856377  Gnorm:      0.003988  CPU:    1.151
  ** Hessian calculated **
  Cycle:     56 Energy:       -99.856377  Gnorm:      0.003870  CPU:    1.172
  Cycle:     57 Energy:       -99.856377  Gnorm:      0.003694  CPU:    1.188
  Cycle:     58 Energy:       -99.856377  Gnorm:      0.003429  CPU:    1.205
  Cycle:     59 Energy:       -99.856377  Gnorm:      0.003032  CPU:    1.221
  Cycle:     60 Energy:       -99.856378  Gnorm:      0.002436  CPU:    1.237
  Cycle:     61 Energy:       -99.856378  Gnorm:      0.001545  CPU:    1.253


  **** Optimisation achieved ****


  Final energy =     -99.85637867 eV
  Final Gnorm  =       0.00022970

  Components of energy : 

--------------------------------------------------------------------------------
  Interatomic potentials     =          20.55356182 eV    
  Monopole - monopole (real) =          80.99460097 eV    
  Monopole - monopole (recip)=        -201.40454146 eV    
  Monopole - monopole (total)=        -120.40994049 eV    
--------------------------------------------------------------------------------
  Total lattice energy : 
    Primitive unit cell      =         -99.85637867 eV    
    Non-primitive unit cell  =        -299.56913600 eV    
--------------------------------------------------------------------------------
  Total lattice energy (in kJmol-1): 
    Primitive unit cell      =           -9634.6141 kJ/(mole unit cells)
    Non-primitive unit cell  =          -28903.8423 kJ/(mole unit cells)
--------------------------------------------------------------------------------

  Final asymmetric unit coordinates :

--------------------------------------------------------------------------------
   No.  Atomic        x           y           z         Radius
        Label       (Frac)      (Frac)      (Frac)       (Angs) 
--------------------------------------------------------------------------------
     1  Sc    c     0.333302    0.333302    0.333302    0.000000
     2  Cl    c     0.077345    0.440528    0.713912    0.000000
     3  Cl    s     0.065297    0.450169    0.680282    0.000000
--------------------------------------------------------------------------------

  Final Cartesian lattice vectors (Angstroms) :

        3.146819    1.816817    6.452887
       -3.146819    1.816817    6.452887
        0.000000   -3.633633    6.452887


  Final cell parameters and derivatives :

--------------------------------------------------------------------------------
       a            7.405608 Angstrom     dE/de1(xx)    -0.000123 eV/strain
       b            7.405608 Angstrom     dE/de2(yy)     0.000000 eV/strain
       c            7.405608 Angstrom     dE/de3(zz)    -0.000049 eV/strain
       alpha       50.291669 Degrees      dE/de4(yz)     0.000000 eV/strain
       beta        50.291669 Degrees      dE/de5(xz)     0.000000 eV/strain
       gamma       50.291669 Degrees      dE/de6(xy)     0.000000 eV/strain
--------------------------------------------------------------------------------

  Primitive cell volume =           221.354351 Angs**3

  Density of cell =      2.270208 g/cm**3

  Non-primitive lattice parameters :

  a    =     6.293637  b   =     6.293637  c    =    19.358660
  alpha=    90.000000  beta=    90.000000  gamma=   120.000000

  Non-primitive cell volume =           664.063053 Angs**3


  Final internal derivatives :

--------------------------------------------------------------------------------
   No.  Atomic          a             b             c           Radius
        Label          (eV)          (eV)          (eV)        (eV/Angs)
--------------------------------------------------------------------------------
      1 Sc    c       0.000000      0.000000      0.000333      0.000000
      2 Cl    c      -0.000512      0.000026      0.001871      0.000000
      3 Cl    s      -0.000302      0.000461     -0.000278      0.000000
--------------------------------------------------------------------------------
  Maximum abs         0.000512      0.000461      0.001871      0.000000
--------------------------------------------------------------------------------

  Comparison of initial and final structures : 

--------------------------------------------------------------------------------
  Parameter   Initial value   Final value   Difference    Units      Percent
--------------------------------------------------------------------------------
    Volume       705.595603    664.063053   -41.532550    Angs**3     -5.89
    a              6.493176      6.293637    -0.199538    Angstroms   -3.07
    b              6.493176      6.293637    -0.199538    Angstroms   -3.07
    c             19.324619     19.358660     0.034041    Angstroms    0.18
    alpha         90.000000     90.000000     0.000000    Degrees      0.00
    beta          90.000000     90.000000     0.000000    Degrees      0.00
    gamma        120.000000    120.000000     0.000000    Degrees      0.00
      1 x          0.000000      0.000000     0.000000    Fractional   0.00
      1 y          0.000000      0.000000     0.000000    Fractional   0.00
      1 z          0.333900      0.333302     0.000598    Fractional   0.18
      2 x          0.666067      0.666750     0.000683    Fractional   0.10
      2 y          0.702333      0.696683     0.005650    Fractional   0.80
      2 z          0.407633      0.410595     0.002962    Fractional   0.73
      3 x          0.666067      0.666715     0.000648    Fractional   0.10
      3 y          0.702333      0.718301     0.015968    Fractional   2.27
      3 z          0.407633      0.398583     0.009051    Fractional   2.22
--------------------------------------------------------------------------------


  Born effective charge tensors : 

-------------------------------------------------------------------------------
  Atom             x           y             z
-------------------------------------------------------------------------------
    1 Sc    x       1.8547     -0.0008      0.0000
            y       0.0008      1.8547      0.0000
            z       0.0000      0.0000      1.3341
-------------------------------------------------------------------------------
    2 Cl    x      -0.6622     -0.0739     -0.0054
            y      -0.0744     -0.5743      0.0077
            z      -0.0118      0.0242     -0.4447
-------------------------------------------------------------------------------




  Elastic Constant Matrix: (Units=GPa)

-------------------------------------------------------------------------------
  Indices      1         2         3         4         5         6    
-------------------------------------------------------------------------------
       1     59.0042   36.7253    0.0676   -0.0391    0.0164    0.0000
       2     36.7253   59.0042    0.0676    0.0391   -0.0164   -0.0000
       3      0.0676    0.0676    1.3662   -0.0000   -0.0000    0.0000
       4     -0.0391    0.0391   -0.0000    0.1362   -0.0000   -0.0164
       5      0.0164   -0.0164   -0.0000   -0.0000    0.1362   -0.0391
       6      0.0000   -0.0000    0.0000   -0.0164   -0.0391   11.1394
-------------------------------------------------------------------------------


  Elastic Compliance Matrix: (Units=1/GPa)

-------------------------------------------------------------------------------
  Indices      1         2         3         4         5         6    
-------------------------------------------------------------------------------
       1    0.027693 -0.017246 -0.000517  0.012917 -0.005403 -0.000000
       2   -0.017246  0.027693 -0.000517 -0.012917  0.005403  0.000000
       3   -0.000517 -0.000517  0.731998 -0.000000  0.000000 -0.000000
       4    0.012917 -0.012917 -0.000000  7.352608  0.000000  0.010807
       5   -0.005403  0.005403  0.000000  0.000000  7.352608  0.025834
       6   -0.000000  0.000000 -0.000000  0.010807  0.025834  0.089878
-------------------------------------------------------------------------------

  Mechanical properties :

-------------------------------------------------------------------------------
  Convention :                    Reuss         Voigt         Hill
-------------------------------------------------------------------------------
  Bulk  Modulus (GPa)     =       1.33187      21.45510      11.39349
  Shear Modulus (GPa)     =       0.31507       7.78329       4.04918
-------------------------------------------------------------------------------
  Velocity S-wave (km/s)  =       0.37254       1.85161       1.33552
  Velocity P-wave (km/s)  =       0.87848       3.74459       2.71972
-------------------------------------------------------------------------------
  Compressibility (1/GPa) =    0.75082247
-------------------------------------------------------------------------------
  Stress axis :                     x             y             z
-------------------------------------------------------------------------------
  Youngs Moduli (GPa)     =      36.11042      36.11042       1.36612
-------------------------------------------------------------------------------
  Poissons Ratio (x)      =                     0.62276       0.00071
  Poissons Ratio (y)      =       0.62276                     0.00071
  Poissons Ratio (z)      =       0.01868       0.01868
-------------------------------------------------------------------------------


  Piezoelectric Strain Matrix: (Units=C/m**2)

-------------------------------------------------------------------------------
  Indices      1         2         3         4         5         6    
-------------------------------------------------------------------------------
       x    -0.00000  -0.00000  -0.00000  -0.00000  -0.00000  -0.00000
       y     0.00000  -0.00000   0.00000   0.00000   0.00000  -0.00000
       z    -0.00000   0.00000  -0.00000   0.00000  -0.00000  -0.00000
-------------------------------------------------------------------------------


  Piezoelectric Stress Matrix: (Units=10**-11 C/N)

-------------------------------------------------------------------------------
  Indices      1         2         3         4         5         6    
-------------------------------------------------------------------------------
       x    -0.00000  -0.00000  -0.00000  -0.00000  -0.00000  -0.00000
       y     0.00000  -0.00000   0.00000   0.00000   0.00000  -0.00000
       z    -0.00000   0.00000  -0.00000   0.00000  -0.00000  -0.00000
-------------------------------------------------------------------------------


  Static dielectric constant tensor : 

-------------------------------------------------------------------------------
              x         y         z
-------------------------------------------------------------------------------
       x     2.69429  -0.00000   0.00000
       y    -0.00000   2.69429   0.00000
       z     0.00000   0.00000   2.22327
--------------------------------------------------------------------------------

  High frequency dielectric constant tensor : 

-------------------------------------------------------------------------------
              x         y         z
-------------------------------------------------------------------------------
       x     2.11991  -0.00000   0.00000
       y    -0.00000   2.11991   0.00000
       z     0.00000   0.00000   1.97865
-------------------------------------------------------------------------------

  Static refractive indices : 

-------------------------------------------------------------------------------
    1 =    1.49106      2 =    1.64143      3 =    1.64143
-------------------------------------------------------------------------------

  High frequency refractive indices : 

-------------------------------------------------------------------------------
    1 =    1.40664      2 =    1.45599      3 =    1.45599
-------------------------------------------------------------------------------


  Time to end of optimisation =       1.3006 seconds

********************************************************************************
*  Defect calculation for configuration   1 :                                  *
********************************************************************************



!!!!!!!!!!!!!!!!!!!!!!!!!!!!!!!!!!!!!!!!!!!!!!!!!!!!!!!!!!!!!!!!!!!!!!!!!!!!!!!!
!! WARNING : Ambiguous vacancy specifier used
!!!!!!!!!!!!!!!!!!!!!!!!!!!!!!!!!!!!!!!!!!!!!!!!!!!!!!!!!!!!!!!!!!!!!!!!!!!!!!!!



!!!!!!!!!!!!!!!!!!!!!!!!!!!!!!!!!!!!!!!!!!!!!!!!!!!!!!!!!!!!!!!!!!!!!!!!!!!!!!!!
!! WARNING : Ambiguous vacancy specifier used
!!!!!!!!!!!!!!!!!!!!!!!!!!!!!!!!!!!!!!!!!!!!!!!!!!!!!!!!!!!!!!!!!!!!!!!!!!!!!!!!

  Total number of defects =      2

  Total charge on defect  =   1.00

  Defect centre is at   0.0737   0.4439   0.7053  Frac

  Region 1 radius =  18.0000      Number of ions =   1537

  Region 2 radius =  24.0000      Number of ions =   2126

  Region 2a mode = 4 : screened electrostatics due to region 1 
                       neglect correction to region 1 forces from 2a
                       region 2a displacements based on defects only

  Region 2a ions will only interact with defects in region 1

  Vacancies:

--------------------------------------------------------------------------------
    Specification type     Symbol/Number         x          y          z
--------------------------------------------------------------------------------
    Atom                    Cl    core
    Atom                    Cl    shel
--------------------------------------------------------------------------------


  Components of defect energy : 

--------------------------------------------------------------------------------
  Region 1 - region 1                   =     -8.74448803 eV
  Region 1 - region 2a (unrelaxed)      =     19.02859277 eV
  Region 1 - 2a (relaxed - correction)  =     -0.11890138 eV
  Region 1 (Total)                      =     10.16520336 eV
  Region 2a                             =      0.05945437 eV
  Region 2b                             =     -0.18241543 eV
--------------------------------------------------------------------------------
  Total defect energy                   =     10.04224229 eV
--------------------------------------------------------------------------------

  Largest displacement in region 2 =   0.0052 Angstroms


  Number of variables =     4611

  Maximum number of calculations  =        1000
  Maximum Hessian update interval =          10
  Maximum step size               =   1.0000000
  Maximum parameter tolerance     =   0.0000100
  Maximum function  tolerance     =   0.0000100
  Maximum gradient  tolerance     =   0.0010000

  Symmetry adapted optimisation

  Newton-Raphson optimiser to be used

  BFGS hessian update to be used

  Lower half triangular hessian to be used

  Start of defect optimisation :

  Cycle:      0 Defect Energy:  10.042242  Gnorm:     0.003942  CPU:   34.546
  ** Hessian calculated **
  Cycle:      1 Defect Energy:   9.040398  Gnorm:     0.003234  CPU:  155.447
  Cycle:      2 Defect Energy:   7.850782  Gnorm:     0.002121  CPU:  193.264
  Cycle:      3 Defect Energy:   6.902078  Gnorm:     0.000517  CPU:  215.236
  Cycle:      4 Defect Energy:   6.837540  Gnorm:     0.000349  CPU:  220.407
  Cycle:      5 Defect Energy:   6.790703  Gnorm:     0.000232  CPU:  225.484
  Cycle:      6 Defect Energy:   6.767125  Gnorm:     0.000167  CPU:  230.495
  ** Hessian calculated **
  Cycle:      7 Defect Energy:   6.745966  Gnorm:     0.000117  CPU:  319.992
  Cycle:      8 Defect Energy:   6.734883  Gnorm:     0.000083  CPU:  324.754
  Cycle:      9 Defect Energy:   6.728710  Gnorm:     0.000058  CPU:  330.031
  Cycle:     10 Defect Energy:   6.725341  Gnorm:     0.000041  CPU:  334.853
  Cycle:     11 Defect Energy:   6.723516  Gnorm:     0.000029  CPU:  339.561
  Cycle:     12 Defect Energy:   6.722546  Gnorm:     0.000020  CPU:  345.437
  Cycle:     13 Defect Energy:   6.722048  Gnorm:     0.000014  CPU:  349.945
  Cycle:     14 Defect Energy:   6.721776  Gnorm:     0.000010  CPU:  354.337
  Cycle:     15 Defect Energy:   6.721640  Gnorm:     0.000007  CPU:  358.806
  Cycle:     16 Defect Energy:   6.721573  Gnorm:     0.000005  CPU:  363.316
  ** Hessian calculated **
  Cycle:     17 Defect Energy:   6.721524  Gnorm:     0.000003  CPU:  439.342
  Cycle:     18 Defect Energy:   6.721508  Gnorm:     0.000002  CPU:  443.723


  **** Optimisation achieved ****


  Final defect energy  =        6.72150093
  Final defect Gnorm   =        0.00000171

  Components of defect energy : 

--------------------------------------------------------------------------------
  Region 1 - region 1                   =    -10.99602490 eV
  Region 1 - region 2a (unrelaxed)      =     17.95300871 eV
  Region 1 - 2a (relaxed - correction)  =     -0.10573541 eV
  Region 1 (Total)                      =      6.85124840 eV
  Region 2a                             =      0.05284585 eV
  Region 2b                             =     -0.18259332 eV
--------------------------------------------------------------------------------
  Total defect energy                   =      6.72150093 eV
--------------------------------------------------------------------------------

  Largest displacement in region 2 =   0.0052 Angstroms

  Final coordinates of region 1 :

--------------------------------------------------------------------------------
   No.  Atomic        x           y           z          Radius      Charge
        Label       (Angs)      (Angs)      (Angs)       (Angs)       (e) 
--------------------------------------------------------------------------------
     1  Sc    c    -3.496643   -2.006125    6.155189    0.000000    3.000000
     2  Sc    c     0.338820    0.206712    6.159050    0.000000    3.000000
     3  Cl    c    -1.817831   -0.484156    5.278396    0.000000    1.485000
     4  Cl    c    -4.344415   -0.262222    7.710075    0.000000    1.485000
     5  Cl    c    -0.747455    1.813830    7.712946    0.000000    1.485000
     6  Cl    c    -3.800704   -3.676830    7.960539    0.000000    1.485000
     7  Cl    c     1.938912   -0.364666    7.963492    0.000000    1.485000
     8  Cl    c    -2.370381   -3.774665    4.828759    0.000000    1.485000
     9  Cl    c     1.306354   -1.653436    4.832476    0.000000    1.485000
    10  Cl    c    -1.061632   -5.636362    7.872866    0.000000    1.485000
    11  Cl    c     2.265810   -3.717513    7.874082    0.000000    1.485000
    12  Cl    c    -1.993042    0.175470   11.385893    0.000000    1.485000
    13  Cl    c     0.831096   -1.818312   11.380364    0.000000    1.485000
    14  Cl    c    -2.001014   -3.810317   11.395277    0.000000    1.485000
    15  Sc    c    -3.107875   -5.584551    6.441075    0.000000    3.000000
    16  Sc    c     3.243855   -1.918565    6.443385    0.000000    3.000000
    17  Cl    c    -5.421765   -1.568517    4.665521    0.000000    1.485000
    18  Cl    c     0.923795    2.091847    4.668452    0.000000    1.485000
    19  Cl    c     1.154562    1.634240   11.383314    0.000000    1.485000
    20  Sc    c     0.002705    0.001210   12.895927    0.000000    3.000000
    21  Cl    c     1.178327   -5.675317    4.913446    0.000000    1.485000
    22  Sc    c     0.001023   -3.638961   12.894871    0.000000    3.000000
    23  Cl    c    -5.443655   -1.820948   11.387204    0.000000    1.485000
    24  Sc    c    -6.434313    0.066841    6.318741    0.000000    3.000000
    25  Sc    c     0.012919    3.787361    6.320421    0.000000    3.000000
    26  Cl    c     1.151704   -5.274870   11.386816    0.000000    1.485000
    27  Sc    c     0.054121   -7.347806    6.405594    0.000000    3.000000
    28  Sc    c     3.189332   -5.538434    6.404905    0.000000    3.000000
    29  Cl    c    -5.484163    1.868401    4.872240    0.000000    1.485000
    30  Cl    c    -2.021541    3.865395    4.872748    0.000000    1.485000
    31  Cl    c    -5.139884    1.630652   11.371166    0.000000    1.485000
    32  Cl    c    -4.284253    3.787921    7.861307    0.000000    1.485000
    33  Cl    c    -7.437724   -1.660738    7.821299    0.000000    1.485000
    34  Cl    c    -1.960962   -7.190156    4.915352    0.000000    1.485000
    35  Cl    c     4.060155   -3.713459    4.915903    0.000000    1.485000
    36  Cl    c     2.011438    3.794241    7.821990    0.000000    1.485000
    37  Cl    c    -4.296380   -7.142693    7.984440    0.000000    1.485000
    38  Cl    c     5.188878   -1.667816    7.984872    0.000000    1.485000
    39  Cl    c     2.037505   -7.163017    7.919782    0.000000    1.485000
    40  Cl    c    -5.167078   -5.602278    5.021385    0.000000    1.485000
    41  Cl    c     4.287261   -0.144351    5.022210    0.000000    1.485000
    42  Sc    c    -3.151263    1.821881   12.884410    0.000000    3.000000
    43  Cl    c    -1.155167   -1.989306    1.464478    0.000000    1.485000
    44  Cl    c    -2.297355    3.636024   11.382779    0.000000    1.485000
    45  Cl    c    -5.139576   -5.273372   11.383471    0.000000    1.485000
    46  Cl    c    -0.867253   -1.817959   14.378279    0.000000    1.485000
    47  Sc    c    -3.150854   -5.458234   12.898435    0.000000    3.000000
    48  Cl    c     4.299286    0.164748   11.394315    0.000000    1.485000
    49  Cl    c    -2.294944   -7.271572   11.397263    0.000000    1.485000
    50  Cl    c     4.295938   -3.799466   11.394885    0.000000    1.485000
    51  Cl    c    -7.137406    1.853671    7.910502    0.000000    1.485000
    52  Cl    c    -1.183261    5.291135    7.910584    0.000000    1.485000
    53  Cl    c    -3.980785   -0.003586    1.470631    0.000000    1.485000
    54  Cl    c    -1.146056    1.659827   14.375118    0.000000    1.485000
    55  Cl    c    -1.143861    1.983759    1.459861    0.000000    1.485000
    56  Cl    c    -4.291797   -3.453048    1.469304    0.000000    1.485000
    57  Sc    c    -6.297982   -0.000349   12.884992    0.000000    3.000000
    58  Cl    c     1.989516   -3.447535    1.488385    0.000000    1.485000
    59  Cl    c    -7.445764   -5.593040    7.953630    0.000000    1.485000
    60  Cl    c    -4.284170    0.153555   14.367592    0.000000    1.485000
    61  Cl    c     5.420195    1.833799    7.953799    0.000000    1.485000
    62  Cl    c     2.289395    0.003396    1.469085    0.000000    1.485000
    63  Sc    c    -6.298572   -3.637723   12.890159    0.000000    3.000000
    64  Sc    c     3.154241    1.817661   12.889218    0.000000    3.000000
    65  Cl    c     2.011663    0.157106   14.378298    0.000000    1.485000
    66  Cl    c    -0.853701   -5.447548    1.477363    0.000000    1.485000
    67  Cl    c    -0.850240   -9.123626    7.914988    0.000000    1.485000
    68  Cl    c     5.178828   -5.642729    7.915206    0.000000    1.485000
    69  Cl    c    -1.143981   -5.289760   14.386516    0.000000    1.485000
    70  Sc    c    -6.317858    3.685060    6.400111    0.000000    3.000000
    71  Sc    c    -3.178331    5.496839    6.399125    0.000000    3.000000
    72  Cl    c    -4.288041   -3.788145   14.377196    0.000000    1.485000
    73  Cl    c     2.011627   -3.785858   14.376672    0.000000    1.485000
    74  Sc    c     3.152186   -5.452362   12.891412    0.000000    3.000000
    75  Sc    c    -6.317512   -7.285783    6.494271    0.000000    3.000000
    76  Sc    c     6.321628    0.011020    6.493289    0.000000    3.000000
    77  Cl    c    -8.469152   -0.128985    4.890171    0.000000    1.485000
    78  Cl    c     1.199142    5.450569    4.889898    0.000000    1.485000
    79  Sc    c    -3.148737   -1.818025   -0.048912    0.000000    3.000000
    80  Cl    c    -8.294965    0.173047   11.383335    0.000000    1.485000
    81  Cl    c     3.994896    3.633946   11.383242    0.000000    1.485000
    82  Cl    c    -8.608538   -3.649122    4.940658    0.000000    1.485000
    83  Sc    c     0.004119   -3.639373   -0.029119    0.000000    3.000000
    84  Cl    c     4.318424    3.812802    4.940722    0.000000    1.485000
    85  Cl    c    -8.296498   -3.809523   11.390060    0.000000    1.485000
    86  Cl    c     0.890366   -9.172480    4.919415    0.000000    1.485000
    87  Cl    c     4.351991   -7.175311    4.919629    0.000000    1.485000
    88  Cl    c     1.145641    5.616310   11.389495    0.000000    1.485000
    89  Sc    c    -9.513393   -1.835757    6.412168    0.000000    3.000000
    90  Sc    c     3.199838    5.503647    6.411069    0.000000    3.000000
    91  Cl    c     3.997237   -7.269165   11.389124    0.000000    1.485000
    92  Cl    c    -5.168600    5.318845    4.891627    0.000000    1.485000
    93  Cl    c     1.142096   -9.250658   11.399951    0.000000    1.485000
    94  Cl    c    -4.293165    3.454523    1.478333    0.000000    1.485000
    95  Cl    c     1.992738    3.455086    1.479636    0.000000    1.485000
    96  Sc    c    -3.148451    1.821573   -0.036836    0.000000    3.000000
    97  Cl    c    -4.017420    3.636935   14.372490    0.000000    1.485000
    98  Cl    c    -7.154206   -1.816437   14.379987    0.000000    1.485000
    99  Sc    c    -3.150529    5.457312   12.883961    0.000000    3.000000
   100  Cl    c    -7.435737   -1.978227    1.473231    0.000000    1.485000
   101  Cl    c    -5.152455    5.621097   11.387178    0.000000    1.485000
   102  Cl    c     5.141568   -1.986246    1.487740    0.000000    1.485000
   103  Sc    c     3.151505   -1.817649   -0.023415    0.000000    3.000000
   104  Cl    c     7.145989   -1.817204   11.389689    0.000000    1.485000
   105  Cl    c     2.273654    3.631107   14.372963    0.000000    1.485000
   106  Cl    c    -4.015440   -7.273117   14.387617    0.000000    1.485000
   107  Cl    c    -5.424492   -9.078905    4.994579    0.000000    1.485000
   108  Cl    c     7.428536   -1.659173    4.994369    0.000000    1.485000
   109  Sc    c     6.302400   -0.000903   12.896022    0.000000    3.000000
   110  Cl    c    -4.286990   -7.426700    1.486958    0.000000    1.485000
   111  Cl    c     2.003420   -7.430295    1.486928    0.000000    1.485000
   112  Sc    c    -3.149171   -9.093073   12.897139    0.000000    3.000000
   113  Sc    c     6.300310   -3.635009   12.893879    0.000000    3.000000
   114  Sc    c    -9.456502   -5.462834    6.454893    0.000000    3.000000
   115  Sc    c     6.312572    3.640958    6.455814    0.000000    3.000000
   116  Cl    c     5.425826   -1.817728   14.380774    0.000000    1.485000
   117  Cl    c     2.275858   -7.264354   14.379580    0.000000    1.485000
   118  Cl    c    -5.152668   -9.253945   11.402168    0.000000    1.485000
   119  Cl    c    -7.449710    5.316006    7.918168    0.000000    1.485000
   120  Cl    c    -4.024967    7.291701    7.918232    0.000000    1.485000
   121  Cl    c   -10.298505   -3.641309    7.954926    0.000000    1.485000
   122  Cl    c     5.155502    5.281457    7.954734    0.000000    1.485000
   123  Cl    c    -8.335772    3.816068    4.929810    0.000000    1.485000
   124  Cl    c    -2.282811    7.310757    4.929980    0.000000    1.485000
   125  Cl    c    -1.996447    7.094288   11.379204    0.000000    1.485000
   126  Sc    c     0.005448  -10.965822    6.438064    0.000000    3.000000
   127  Cl    c    -8.288408   -7.102373    4.963835    0.000000    1.485000
   128  Sc    c     6.347129   -7.304875    6.438987    0.000000    3.000000
   129  Cl    c     7.147997    1.810243    4.963634    0.000000    1.485000
   130  Cl    c   -10.603868   -0.170126    7.927477    0.000000    1.485000
   131  Cl    c     2.302380    7.280155    7.927158    0.000000    1.485000
   132  Cl    c    -0.855069    5.445269    1.474003    0.000000    1.485000
   133  Sc    c     0.003820    3.640302   -0.035166    0.000000    3.000000
   134  Cl    c    -7.134829   -5.444781    1.493642    0.000000    1.485000
   135  Cl    c    -7.160706   -9.107783    7.983169    0.000000    1.485000
   136  Cl    c     8.320747   -0.169228    7.982836    0.000000    1.485000
   137  Cl    c    -2.284056    0.005087   -1.528842    0.000000    1.485000
   138  Cl    c    -1.997410   -3.477307   -1.525178    0.000000    1.485000
   139  Cl    c    -7.430427    1.663509   14.371909    0.000000    1.485000
   140  Sc    c    -6.301002   -3.635508   -0.024455    0.000000    3.000000
   141  Sc    c     3.152657    1.821316   -0.028060    0.000000    3.000000
   142  Cl    c     5.153344    1.653762   14.385624    0.000000    1.485000
   143  Cl    c    -7.435804    1.978568    1.477369    0.000000    1.485000
   144  Cl    c     1.142494   -1.974525   -1.512110    0.000000    1.485000
   145  Sc    c     3.147746    5.452475   12.888856    0.000000    3.000000
   146  Cl    c     5.143600    1.985843    1.482030    0.000000    1.485000
   147  Cl    c    -1.147666   -8.906485    1.498796    0.000000    1.485000
   148  Cl    c    -1.140928    5.602987   14.370700    0.000000    1.485000
   149  Cl    c    -8.585846    3.637992   11.391313    0.000000    1.485000
   150  Cl    c    -7.433345   -5.295900   14.381659    0.000000    1.485000
   151  Sc    c     0.003864   -7.275019   -0.013764    0.000000    3.000000
   152  Cl    c     5.151462   -5.285159   14.388052    0.000000    1.485000
   153  Cl    c    -1.997631  -10.733516   11.395076    0.000000    1.485000
   154  Cl    c     7.443201    1.651418   11.398931    0.000000    1.485000
   155  Cl    c    -2.006953  -11.090800    4.953752    0.000000    1.485000
   156  Cl    c     7.460518   -5.624963    4.953346    0.000000    1.485000
   157  Cl    c    -4.283043  -11.071745    7.950409    0.000000    1.485000
   158  Cl    c     8.583126   -3.644581    7.949777    0.000000    1.485000
   159  Cl    c     5.432704   -5.451315    1.489276    0.000000    1.485000
   160  Cl    c     2.007265  -11.085723    7.936537    0.000000    1.485000
   161  Cl    c     5.450169   -9.099254    7.936451    0.000000    1.485000
   162  Cl    c    -8.583851   -7.272880   11.399871    0.000000    1.485000
   163  Sc    c     3.147394   -9.086500   12.894260    0.000000    3.000000
   164  Cl    c     7.442909   -5.287143   11.398513    0.000000    1.485000
   165  Cl    c    -1.140506   -9.239346   14.385206    0.000000    1.485000
   166  Cl    c    -2.291832    0.000470   17.861551    0.000000    1.485000
   167  Cl    c    -2.000081   -3.465247   17.860750    0.000000    1.485000
   168  Cl    c    -5.162158   -1.981561   -1.523664    0.000000    1.485000
   169  Cl    c     1.144773   -1.984104   17.862533    0.000000    1.485000
   170  Sc    c    -9.444204    1.820327   12.886933    0.000000    3.000000
   171  Sc    c    -0.000309    7.269440   12.886307    0.000000    3.000000
   172  Cl    c     1.145068    1.976494   -1.518345    0.000000    1.485000
   173  Cl    c     0.870686   -5.460260   -1.509459    0.000000    1.485000
   174  Sc    c    -9.445275   -5.456229   12.894574    0.000000    3.000000
   175  Sc    c     0.000870  -10.904394   12.899285    0.000000    3.000000
   176  Cl    c   -11.532077   -1.672312    4.948418    0.000000    1.485000
   177  Cl    c     4.067517    7.334322    4.948211    0.000000    1.485000
   178  Sc    c    -6.297034  -10.914354    6.469258    0.000000    3.000000
   179  Sc    c     9.453894   -1.820869    6.469796    0.000000    3.000000
   180  Cl    c    -2.002155    3.474925   -1.524770    0.000000    1.485000
   181  Cl    c    -5.148681   -1.984966   17.861137    0.000000    1.485000
   182  Sc    c    -6.298617    3.635795   -0.019047    0.000000    3.000000
   183  Cl    c    -5.161856    1.975024   -1.514085    0.000000    1.485000
   184  Cl    c     4.010240   -0.000699   -1.515582    0.000000    1.485000
   185  Cl    c     1.145584    1.983100   17.862600    0.000000    1.485000
   186  Cl    c   -10.582899    3.797784    7.931947    0.000000    1.485000
   187  Cl    c    -1.143193    9.247540    7.931783    0.000000    1.485000
   188  Cl    c     0.855146   -5.450064   17.861436    0.000000    1.485000
   189  Cl    c     4.296252    7.098928   11.391640    0.000000    1.485000
   190  Cl    c   -10.587783   -7.116460    7.952756    0.000000    1.485000
   191  Cl    c     8.311116    3.794450    7.952405    0.000000    1.485000
   192  Cl    c    -1.155826  -12.583713    7.952152    0.000000    1.485000
   193  Cl    c     8.329851   -7.107580    7.951638    0.000000    1.485000
   194  Sc    c    -6.293465   -7.270062   -0.007105    0.000000    3.000000
   195  Sc    c    -9.471425    5.471726    6.437299    0.000000    3.000000
   196  Sc    c    -3.149358    9.121258    6.438294    0.000000    3.000000
   197  Cl    c    -5.425838   -5.455213   -1.503321    0.000000    1.485000
   198  Cl    c     4.291978   -3.482755   -1.502212    0.000000    1.485000
   199  Sc    c    -3.145736   -9.087657   -0.004865    0.000000    3.000000
   200  Sc    c     6.298210   -3.637244   -0.006380    0.000000    3.000000
   201  Cl    c    -2.006566   -7.428180   -1.498489    0.000000    1.485000
   202  Cl    c   -11.729207   -1.817655   11.399086    0.000000    1.485000
   203  Cl    c     4.294811  -10.734855   11.398489    0.000000    1.485000
   204  Cl    c    -2.000793    3.464719   17.860334    0.000000    1.485000
   205  Cl    c    -7.141963    5.446851    1.491044    0.000000    1.485000
   206  Cl    c   -10.287394    0.000439    1.492978    0.000000    1.485000
   207  Cl    c     4.298040  -11.079256    4.961779    0.000000    1.485000
   208  Cl    c    -5.148150    1.984174   17.861820    0.000000    1.485000
   209  Cl    c    -4.291560    7.107789   14.379751    0.000000    1.485000
   210  Cl    c     1.999040    7.098950   14.385084    0.000000    1.485000
   211  Cl    c   -11.444347    1.645399   11.389989    0.000000    1.485000
   212  Cl    c     4.000818    0.000417   17.860560    0.000000    1.485000
   213  Sc    c    -3.158658  -12.738748    6.452668    0.000000    3.000000
   214  Sc    c     9.464485   -5.450967    6.450836    0.000000    3.000000
   215  Cl    c   -11.455304   -5.624349    4.959357    0.000000    1.485000
   216  Cl    c     7.450959    5.290793    4.959019    0.000000    1.485000
   217  Sc    c    -6.298640    7.272485   12.887939    0.000000    3.000000
   218  Sc    c    -9.448353   -1.815281   -0.015934    0.000000    3.000000
   219  Cl    c     0.856578    9.087500   11.392500    0.000000    1.485000
   220  Cl    c   -11.443175   -5.282065   11.394151    0.000000    1.485000
   221  Cl    c   -11.743817    1.814343    4.961908    0.000000    1.485000
   222  Cl    c     1.154732    9.260177    4.961559    0.000000    1.485000
   223  Cl    c    -5.436980   -5.450047   17.861884    0.000000    1.485000
   224  Cl    c     4.292176   -3.467525   17.862484    0.000000    1.485000
   225  Cl    c    -4.286922    7.426693    1.484899    0.000000    1.485000
   226  Cl    c     2.003592    7.427812    1.483374    0.000000    1.485000
   227  Cl    c   -10.581597   -3.466839    1.487553    0.000000    1.485000
   228  Cl    c     1.161474  -12.610528    4.949999    0.000000    1.485000
   229  Cl    c     7.193253   -9.127542    4.949689    0.000000    1.485000
   230  Cl    c    -7.437231   -8.910888    1.499736    0.000000    1.485000
   231  Cl    c     8.290994   -3.460775    1.499961    0.000000    1.485000
   232  Cl    c    -2.002386   -7.433157   17.862930    0.000000    1.485000
   233  Cl    c     5.147107   -8.911458    1.501584    0.000000    1.485000
   234  Cl    c    -7.431385    5.606521   14.376776    0.000000    1.485000
   235  Cl    c   -10.573895    0.156978   14.379033    0.000000    1.485000
   236  Cl    c     5.431034    5.449577    1.486099    0.000000    1.485000
   237  Cl    c     5.151503    5.603972   14.381598    0.000000    1.485000
   238  Cl    c    -4.001394  -10.898899    1.497754    0.000000    1.485000
   239  Cl    c     8.303432    0.161215   14.390338    0.000000    1.485000
   240  Sc    c   -12.629174    0.008405    6.455175    0.000000    3.000000
   241  Cl    c    -4.292257  -10.741092   14.394653    0.000000    1.485000
   242  Sc    c     3.160650    9.124111    6.455953    0.000000    3.000000
   243  Sc    c    -3.147568   -1.817086   19.360073    0.000000    3.000000
   244  Cl    c     2.002172  -10.731406   14.395500    0.000000    1.485000
   245  Cl    c   -10.576882   -3.790661   14.382965    0.000000    1.485000
   246  Sc    c     3.152256   -9.089273   -0.003495    0.000000    3.000000
   247  Cl    c     8.301235   -3.793622   14.389131    0.000000    1.485000
   248  Sc    c     0.000096   -3.634311   19.361871    0.000000    3.000000
   249  Sc    c    -6.297734  -10.907190   12.901090    0.000000    3.000000
   250  Cl    c     8.577213    0.000533    1.491568    0.000000    1.485000
   251  Cl    c     7.440687    5.613774   11.401851    0.000000    1.485000
   252  Cl    c     2.288597  -10.900971    1.494597    0.000000    1.485000
   253  Cl    c    -8.297883    7.098498   11.388044    0.000000    1.485000
   254  Cl    c     0.858806  -12.721249   11.404474    0.000000    1.485000
   255  Cl    c    -7.434738   -9.242244   14.388154    0.000000    1.485000
   256  Cl    c     5.151712   -9.237301   14.387038    0.000000    1.485000
   257  Cl    c     0.868294    5.462524   -1.515213    0.000000    1.485000
   258  Cl    c    -8.307244   -3.471456   -1.510558    0.000000    1.485000
   259  Sc    c    -9.446313    1.818362   -0.013466    0.000000    3.000000
   260  Cl    c    -8.592885    7.279364    4.944578    0.000000    1.485000
   261  Cl    c    -5.153386    9.263905    4.944496    0.000000    1.485000
   262  Sc    c     0.001886    7.274514   -0.014633    0.000000    3.000000
   263  Sc    c    -9.444413    5.454270   12.892407    0.000000    3.000000
   264  Sc    c     3.164341  -12.743717    6.453195    0.000000    3.000000
   265  Sc    c     6.307246  -10.929477    6.451872    0.000000    3.000000
   266  Cl    c     4.296132    3.481292   -1.510090    0.000000    1.485000
   267  Cl    c    -5.155924  -12.547173    4.952591    0.000000    1.485000
   268  Cl    c    10.297158   -3.624653    4.951866    0.000000    1.485000
   269  Cl    c     7.438912   -9.248143   11.405324    0.000000    1.485000
   270  Cl    c    -5.438434    9.089999   11.394775    0.000000    1.485000
   271  Sc    c     6.299600    3.638289   -0.010667    0.000000    3.000000
   272  Cl    c    -8.578153    0.001347   -1.504790    0.000000    1.485000
   273  Cl    c    -8.294921  -10.734929   11.397891    0.000000    1.485000
   274  Cl    c     1.148821   -8.930072   -1.501091    0.000000    1.485000
   275  Sc    c    -3.147358    1.817522   19.361318    0.000000    3.000000
   276  Cl    c    -8.301124  -11.055095    4.975914    0.000000    1.485000
   277  Cl    c    10.577018   -0.156013    4.975327    0.000000    1.485000
   278  Sc    c    -9.444065   -9.090037   12.898894    0.000000    3.000000
   279  Sc    c     9.447464    1.818901   12.897975    0.000000    3.000000
   280  Sc    c     6.297880   -7.271224   -0.003687    0.000000    3.000000
   281  Sc    c     3.147608   -1.817001   19.360369    0.000000    3.000000
   282  Cl    c     4.289271   -7.427461   -1.493827    0.000000    1.485000
   283  Cl    c    -1.148104    8.909262    1.494656    0.000000    1.485000
   284  Sc    c     9.445756   -5.453470   12.899248    0.000000    3.000000
   285  Cl    c   -10.297538    3.633653   14.387311    0.000000    1.485000
   286  Cl    c     0.856267    5.451218   17.861879    0.000000    1.485000
   287  Cl    c    10.589321    0.164683   11.403407    0.000000    1.485000
   288  Cl    c    -5.435094  -12.722069   11.406072    0.000000    1.485000
   289  Cl    c    -8.294927   -3.465374   17.860792    0.000000    1.485000
   290  Cl    c     4.291880    3.466877   17.862317    0.000000    1.485000
   291  Cl    c    10.585395   -3.798072   11.403589    0.000000    1.485000
   292  Cl    c   -10.583658    3.468898    1.487577    0.000000    1.485000
   293  Cl    c    -5.426287    5.453301   -1.502855    0.000000    1.485000
   294  Cl    c     8.290911    3.462450    1.498064    0.000000    1.485000
   295  Cl    c    -8.582224    0.000717   17.863960    0.000000    1.485000
   296  Cl    c    -0.868687    9.079821   14.381222    0.000000    1.485000
   297  Cl    c    -5.148026   -8.921622   -1.500133    0.000000    1.485000
   298  Cl    c    -7.434437    9.244390    7.930900    0.000000    1.485000
   299  Cl    c   -10.300131   -7.269932   14.393354    0.000000    1.485000
   300  Cl    c   -13.749140   -1.651440    7.957411    0.000000    1.485000
   301  Cl    c     1.146776   -8.917042   17.861416    0.000000    1.485000
   302  Cl    c     5.158843    9.264724    7.957030    0.000000    1.485000
   303  Sc    c   -12.588964   -0.000512   12.896033    0.000000    3.000000
   304  Cl    c    -7.441322  -12.566719    7.960143    0.000000    1.485000
   305  Cl    c    11.457749   -1.655617    7.959553    0.000000    1.485000
   306  Cl    c     5.156955  -12.565189    7.959533    0.000000    1.485000
   307  Sc    c   -12.589361   -3.634377   12.896542    0.000000    3.000000
   308  Sc    c     6.295964    7.267896   12.895764    0.000000    3.000000
   309  Sc    c   -12.602255    3.637281    6.453686    0.000000    3.000000
   310  Sc    c     0.004683   10.915590    6.452243    0.000000    3.000000
   311  Sc    c     0.000228    3.634510   19.360036    0.000000    3.000000
   312  Sc    c    -6.294942   -3.634415   19.360879    0.000000    3.000000
   313  Sc    c     3.147648    1.817259   19.361503    0.000000    3.000000
   314  Cl    c   -11.470753    5.287123    4.943825    0.000000    1.485000
   315  Cl    c    -1.990653   10.759991    4.943587    0.000000    1.485000
   316  Cl    c     7.433976   -1.974422   -1.494205    0.000000    1.485000
   317  Cl    c   -10.308870    7.284340    7.944655    0.000000    1.485000
   318  Cl    c    -4.301093   10.753310    7.944495    0.000000    1.485000
   319  Cl    c   -13.449251    1.827854    7.965811    0.000000    1.485000
   320  Cl    c     1.994479   10.744671    7.965432    0.000000    1.485000
   321  Cl    c     4.290596   -7.432171   17.864403    0.000000    1.485000
   322  Cl    c   -10.582157   -7.428091    1.495266    0.000000    1.485000
   323  Cl    c     8.298118   -7.431926    1.494599    0.000000    1.485000
   324  Sc    c   -12.598081   -7.278862    6.459337    0.000000    3.000000
   325  Sc    c     9.455962    5.453895    6.457797    0.000000    3.000000
   326  Sc    c     0.000428   -7.268651   19.360016    0.000000    3.000000
   327  Cl    c    -8.302395    3.470115   -1.509941    0.000000    1.485000
   328  Cl    c     8.573209    3.632121   14.388508    0.000000    1.485000
   329  Cl    c    -0.856422   -1.817815   -4.963213    0.000000    1.485000
   330  Cl    c    -0.864358  -12.716333   14.394603    0.000000    1.485000
   331  Sc    c     6.295321  -10.901634   12.901154    0.000000    3.000000
   332  Sc    c    -6.293687    7.269745   -0.007946    0.000000    3.000000
   333  Cl    c    -1.142551  -12.879216    1.496933    0.000000    1.485000
   334  Cl    c    -5.435866    5.451745   17.863435    0.000000    1.485000
   335  Cl    c    -1.142307   -1.976783   20.852640    0.000000    1.485000
   336  Cl    c    -5.146631   -8.916037   17.859460    0.000000    1.485000
   337  Cl    c     8.574213   -7.266930   14.390671    0.000000    1.485000
   338  Cl    c   -11.449193    5.617868   11.400325    0.000000    1.485000
   339  Cl    c    -2.006579    7.428714   -1.502241    0.000000    1.485000
   340  Cl    c    10.297010    3.636820   11.398705    0.000000    1.485000
   341  Cl    c     7.156144   -5.453903   -1.499855    0.000000    1.485000
   342  Cl    c    -8.302017   -7.425617   -1.492592    0.000000    1.485000
   343  Cl    c     7.436912   -1.981959   17.863972    0.000000    1.485000
   344  Cl    c   -13.728731   -5.614612    7.950470    0.000000    1.485000
   345  Cl    c     8.579994    7.264220    7.950221    0.000000    1.485000
   346  Cl    c    -2.004104   11.065938   11.399799    0.000000    1.485000
   347  Sc    c     9.442653   -1.816291   -0.002292    0.000000    3.000000
   348  Cl    c    -4.022156  -14.551889    7.945579    0.000000    1.485000
   349  Cl    c    11.465695   -5.608959    7.944994    0.000000    1.485000
   350  Cl    c     7.437430    1.975100   -1.496869    0.000000    1.485000
   351  Cl    c    -2.279098  -10.904074   -1.493022    0.000000    1.485000
   352  Cl    c    10.298123   -7.270827   11.401038    0.000000    1.485000
   353  Cl    c    -1.146147    1.647460   -4.961459    0.000000    1.485000
   354  Cl    c   -11.721214   -9.088075    4.966185    0.000000    1.485000
   355  Cl    c    10.585159    3.789532    4.965775    0.000000    1.485000
   356  Cl    c   -11.447633   -9.252185   11.405047    0.000000    1.485000
   357  Cl    c    -8.295353    3.465440   17.860970    0.000000    1.485000
   358  Cl    c    -2.294511  -14.546948    4.952851    0.000000    1.485000
   359  Cl    c    10.599316   -7.103833    4.952320    0.000000    1.485000
   360  Cl    c   -10.582329  -11.065526    7.952056    0.000000    1.485000
   361  Cl    c    11.727316    1.814001    7.951606    0.000000    1.485000
   362  Cl    c    -4.290468    0.165481   -4.962878    0.000000    1.485000
   363  Cl    c     2.001306    0.166069   -4.962049    0.000000    1.485000
   364  Cl    c    -1.145898   -5.281521   -4.959688    0.000000    1.485000
   365  Cl    c     2.289744  -14.548847    7.951125    0.000000    1.485000
   366  Cl    c     8.307053  -11.073900    7.951043    0.000000    1.485000
   367  Cl    c    -4.010265   -0.000357   20.853059    0.000000    1.485000
   368  Cl    c    -4.291393   -3.798994   -4.962497    0.000000    1.485000
   369  Cl    c     2.000381   -3.799340   -4.961448    0.000000    1.485000
   370  Sc    c    -3.147008    9.086995   -0.007899    0.000000    3.000000
   371  Cl    c    -1.140874    1.976864   20.852138    0.000000    1.485000
   372  Cl    c    -4.288521   -3.473480   20.852507    0.000000    1.485000
   373  Cl    c     2.004946   -3.471735   20.854182    0.000000    1.485000
   374  Cl    c    -2.001906    7.431731   17.863838    0.000000    1.485000
   375  Cl    c     2.282135   -0.000410   20.852350    0.000000    1.485000
   376  Cl    c    -0.864107   -5.451543   20.852827    0.000000    1.485000
   377  Cl    c     7.148620   -5.450447   17.861199    0.000000    1.485000
   378  Sc    c    -0.000632   10.903043   12.895491    0.000000    3.000000
   379  Cl    c    -8.296601   -7.433673   17.861917    0.000000    1.485000
   380  Cl    c    -2.004371  -14.697681   11.410901    0.000000    1.485000
   381  Sc    c    -9.446463    9.099004    6.444546    0.000000    3.000000
   382  Sc    c    -6.303105   10.913510    6.443277    0.000000    3.000000
   383  Sc    c    -6.294663    3.634899   19.359935    0.000000    3.000000
   384  Cl    c     7.437725    1.981101   17.864152    0.000000    1.485000
   385  Sc    c    -9.441328   -9.085387    0.001987    0.000000    3.000000
   386  Sc    c     9.443704    1.817400   -0.002031    0.000000    3.000000
   387  Cl    c    -2.288430  -10.900677   17.862811    0.000000    1.485000
   388  Sc    c     9.443352    5.452148   12.901354    0.000000    3.000000
   389  Sc    c    -3.146256  -12.720939    0.001277    0.000000    3.000000
   390  Sc    c    -6.294362   -7.268656   19.358848    0.000000    3.000000
   391  Cl    c   -14.632819   -0.156659    4.966305    0.000000    1.485000
   392  Sc    c    -3.147075   -9.085254   19.360734    0.000000    3.000000
   393  Cl    c     4.304647   10.776396    4.965935    0.000000    1.485000
   394  Sc    c     6.294493   -3.634518   19.361489    0.000000    3.000000
   395  Cl    c    -7.437906    8.914143    1.494700    0.000000    1.485000
   396  Cl    c     5.144976    8.912448    1.499295    0.000000    1.485000
   397  Cl    c    -7.157119    9.083689   14.387786    0.000000    1.485000
   398  Sc    c     0.000521  -14.537871   12.904930    0.000000    3.000000
   399  Cl    c   -13.440050   -1.816947   14.395626    0.000000    1.485000
   400  Sc    c     9.443080   -9.086909   12.902236    0.000000    3.000000
   401  Sc    c    -9.443832  -12.724672    6.459345    0.000000    3.000000
   402  Sc    c    12.594935   -0.000643    6.457695    0.000000    3.000000
   403  Cl    c   -11.454871   -1.979950   -1.502409    0.000000    1.485000
   404  Sc    c     3.150140    9.088100   -0.006341    0.000000    3.000000
   405  Cl    c   -14.591804    0.166773   11.401720    0.000000    1.485000
   406  Cl    c     7.150757    9.086459   11.400924    0.000000    1.485000
   407  Sc    c   -12.592290   -3.635737   -0.002719    0.000000    3.000000
   408  Sc    c     6.296031    7.271527   -0.004261    0.000000    3.000000
   409  Cl    c   -14.592591   -3.801115   11.402951    0.000000    1.485000
   410  Cl    c   -13.729385   -1.979030    1.492699    0.000000    1.485000
   411  Cl    c     4.289507    7.427692   -1.496906    0.000000    1.485000
   412  Cl    c    11.440924   -1.983455    1.497891    0.000000    1.485000
   413  Sc    c    -9.441729   -1.816567   19.360395    0.000000    3.000000
   414  Cl    c     5.424640    9.079459   14.389069    0.000000    1.485000
   415  Cl    c   -14.871556   -3.633236    4.970445    0.000000    1.485000
   416  Cl    c     7.436314    9.245247    4.970181    0.000000    1.485000
   417  Cl    c    -4.001769    3.630811   -4.958888    0.000000    1.485000
   418  Cl    c     4.012497  -10.905721   -1.495610    0.000000    1.485000
   419  Cl    c    -7.146675   -1.817615   -4.959062    0.000000    1.485000
   420  Cl    c    -7.157556  -12.720974   14.397086    0.000000    1.485000
   421  Cl    c     4.024120  -14.558001    4.959250    0.000000    1.485000
   422  Cl    c     7.449447  -12.581657    4.959236    0.000000    1.485000
   423  Cl    c     4.290588   11.063743   11.405362    0.000000    1.485000
   424  Cl    c    -4.289425    3.473221   20.853369    0.000000    1.485000
   425  Sc    c     3.148828  -12.722148    0.000237    0.000000    3.000000
   426  Cl    c     2.003855    3.471787   20.854344    0.000000    1.485000
   427  Cl    c     1.147159    8.928245   -1.504098    0.000000    1.485000
   428  Cl    c     2.288433    3.630844   -4.961051    0.000000    1.485000
   429  Cl    c     7.150721  -12.718699   11.404698    0.000000    1.485000
   430  Cl    c    -4.003956   -7.267130   -4.958541    0.000000    1.485000
   431  Cl    c   -11.443488   -1.982609   17.863053    0.000000    1.485000
   432  Cl    c   -13.733263    5.295260    7.949624    0.000000    1.485000
   433  Cl    c    -0.865803   12.723029    7.949485    0.000000    1.485000
   434  Sc    c     3.147795   -9.085226   19.361697    0.000000    3.000000
   435  Cl    c    -4.004034   10.898240    1.494198    0.000000    1.485000
   436  Cl    c   -13.438046   -5.451396    1.501421    0.000000    1.485000
   437  Cl    c   -13.446537   -9.094933    7.958476    0.000000    1.485000
   438  Cl    c    11.452213    5.281050    7.958115    0.000000    1.485000
   439  Cl    c   -11.452003    1.978925   -1.502093    0.000000    1.485000
   440  Cl    c    -7.436096  -12.879145    1.497440    0.000000    1.485000
   441  Cl    c   -10.581517    7.106506   14.390590    0.000000    1.485000
   442  Cl    c     7.158016    5.456496   -1.501764    0.000000    1.485000
   443  Cl    c    -7.435359   -1.976908   20.852675    0.000000    1.485000
   444  Cl    c     5.151850  -12.880580    1.495786    0.000000    1.485000
   445  Cl    c     5.151471   -1.977961   20.853892    0.000000    1.485000
   446  Cl    c     8.292869    7.099670   14.397482    0.000000    1.485000
   447  Sc    c    -6.296080   10.905556   12.897337    0.000000    3.000000
   448  Cl    c    11.720059   -1.815726   14.391394    0.000000    1.485000
   449  Cl    c     5.433839   -1.817247   -4.959390    0.000000    1.485000
   450  Cl    c     2.288322   -7.266559   -4.959561    0.000000    1.485000
   451  Cl    c     5.427085  -12.714682   14.394522    0.000000    1.485000
   452  Cl    c     2.286340   10.898961    1.492784    0.000000    1.485000
   453  Sc    c     0.000465   -0.000637   -6.461392    0.000000    3.000000
   454  Cl    c   -10.293323  -10.900673    1.502222    0.000000    1.485000
   455  Cl    c   -13.723706    1.657287   14.390572    0.000000    1.485000
   456  Cl    c     4.290582    7.430537   17.864568    0.000000    1.485000
   457  Sc    c     0.000153   -3.635204   -6.461937    0.000000    3.000000
   458  Cl    c    -4.288485   -7.426435   20.851358    0.000000    1.485000
   459  Cl    c   -10.580755    7.427710    1.491240    0.000000    1.485000
   460  Cl    c   -13.727807    1.979728    1.491266    0.000000    1.485000
   461  Cl    c     2.005147   -7.427172   20.853052    0.000000    1.485000
   462  Sc    c    -9.441464    1.817382   19.361758    0.000000    3.000000
   463  Sc    c     0.000553    7.268509   19.361543    0.000000    3.000000
   464  Cl    c    11.446326    1.654231   14.396508    0.000000    1.485000
   465  Cl    c    -8.300710   10.743157    4.942179    0.000000    1.485000
   466  Cl    c     4.004685  -10.900715   17.862916    0.000000    1.485000
   467  Cl    c     8.296570    7.430937    1.493881    0.000000    1.485000
   468  Cl    c    11.442755    1.983127    1.496980    0.000000    1.485000
   469  Cl    c    -4.287535   11.055807   14.386844    0.000000    1.485000
   470  Cl    c     4.288132  -14.696550   11.411442    0.000000    1.485000
   471  Cl    c    -4.293005  -14.365120    1.502814    0.000000    1.485000
   472  Cl    c     2.004347   11.055180   14.388360    0.000000    1.485000
   473  Cl    c     2.000781  -14.365294    1.502879    0.000000    1.485000
   474  Cl    c   -13.724758   -5.290184   14.392773    0.000000    1.485000
   475  Cl    c   -10.583584  -10.741426   14.396244    0.000000    1.485000
   476  Cl    c   -11.721055   -5.451060   -1.492562    0.000000    1.485000
   477  Sc    c   -15.755584   -1.825709    6.463319    0.000000    3.000000
   478  Sc    c     6.312124   10.914979    6.461891    0.000000    3.000000
   479  Sc    c     6.294769    3.634467   19.360344    0.000000    3.000000
   480  Cl    c    11.444869   -5.284991   14.397302    0.000000    1.485000
   481  Cl    c     8.294068  -10.733162   14.400806    0.000000    1.485000
   482  Cl    c    -5.149128    8.920002   -1.503872    0.000000    1.485000
   483  Cl    c    -7.436801    1.651098   -4.960741    0.000000    1.485000
   484  Cl    c     7.438620   -8.926835   -1.495074    0.000000    1.485000
   485  Cl    c     5.146752    1.648932   -4.958716    0.000000    1.485000
   486  Cl    c     1.145494    8.917500   17.862411    0.000000    1.485000
   487  Sc    c    12.592719    0.000562   12.902492    0.000000    3.000000
   488  Cl    c    -1.143958    5.614728   -4.959615    0.000000    1.485000
   489  Cl    c    -7.436474   -5.284278   -4.960100    0.000000    1.485000
   490  Cl    c   -11.442870    1.981628   17.863687    0.000000    1.485000
   491  Cl    c    -0.863771    5.450154   20.853139    0.000000    1.485000
   492  Sc    c    -6.295087  -14.540130   12.903835    0.000000    3.000000
   493  Cl    c   -14.605856    3.793317    4.961801    0.000000    1.485000
   494  Sc    c    12.589479   -3.632530   12.900931    0.000000    3.000000
   495  Cl    c     0.871149   12.729850    4.961679    0.000000    1.485000
   496  Cl    c     5.147733   -5.281900   -4.957054    0.000000    1.485000
   497  Cl    c    -7.155948   -5.451848   20.853447    0.000000    1.485000
   498  Sc    c   -12.587334  -10.908499    6.456632    0.000000    3.000000
   499  Cl    c     7.149904    5.451477   17.862232    0.000000    1.485000
   500  Cl    c     1.146743   12.551832   11.399324    0.000000    1.485000
   501  Sc    c    12.593958    3.629775    6.457384    0.000000    3.000000
   502  Cl    c   -14.593722   -7.105560    4.957705    0.000000    1.485000
   503  Sc    c     6.294758   -7.268375   19.360419    0.000000    3.000000
   504  Cl    c    10.303724    7.269769    4.957465    0.000000    1.485000
   505  Cl    c     1.140696  -12.875871   -1.489531    0.000000    1.485000
   506  Cl    c    -7.434097    1.977077   20.852571    0.000000    1.485000
   507  Sc    c   -12.591844    3.636284   -0.005722    0.000000    3.000000
   508  Cl    c     5.152450    1.978039   20.853735    0.000000    1.485000
   509  Cl    c    -8.300301    7.425588   -1.497073    0.000000    1.485000
   510  Cl    c    -1.142739   -8.921604   20.854661    0.000000    1.485000
   511  Sc    c    -3.146932    1.816854   -6.461651    0.000000    3.000000
   512  Cl    c    11.724090   -5.451057    1.493347    0.000000    1.485000
   513  Cl    c    -1.144767  -16.513882    7.944231    0.000000    1.485000
   514  Cl    c    11.726970   -9.083079    7.943970    0.000000    1.485000
   515  Cl    c     8.581237  -10.901903    1.494885    0.000000    1.485000
   516  Cl    c    10.298541    0.000232   -1.499058    0.000000    1.485000
   517  Sc    c    -3.149999  -16.366659    6.450434    0.000000    3.000000
   518  Sc    c    12.602138   -7.272159    6.451174    0.000000    3.000000
   519  Cl    c    -4.289481  -14.693623   14.397264    0.000000    1.485000
   520  Cl    c    -1.144842   -9.248979   -4.958322    0.000000    1.485000
   521  Cl    c     2.004923  -14.693568   14.398668    0.000000    1.485000
   522  Cl    c    -8.300528   11.068463   11.404077    0.000000    1.485000
   523  Sc    c    -3.147317   -5.452321   -6.458732    0.000000    3.000000
   524  Sc    c   -12.587697   -7.268764   -0.000500    0.000000    3.000000
   525  Cl    c   -11.727060   -5.450036   17.864828    0.000000    1.485000
   526  Cl    c    13.444150   -1.816029   11.401561    0.000000    1.485000
   527  Cl    c     5.429035   -5.451291   20.852904    0.000000    1.485000
   528  Cl    c    -5.147908    8.916524   17.861781    0.000000    1.485000
   529  Cl    c    10.586580    7.105192   11.407070    0.000000    1.485000
   530  Cl    c     7.438483   -8.919768   17.863612    0.000000    1.485000
   531  Cl    c   -14.874585    3.635856   11.408915    0.000000    1.485000
   532  Sc    c   -15.736974   -5.455135    6.457812    0.000000    3.000000
   533  Sc    c     9.445992    9.084111    6.458804    0.000000    3.000000
   534  Cl    c    -8.571822  -10.899639   -1.488884    0.000000    1.485000
   535  Cl    c    -5.148277   12.552508   11.398519    0.000000    1.485000
   536  Cl    c    10.580733   -3.475059   -1.492892    0.000000    1.485000
   537  Cl    c     1.146250  -16.187603   11.408682    0.000000    1.485000
   538  Cl    c    -8.576605  -14.534520    4.961506    0.000000    1.485000
   539  Sc    c     0.000958  -14.535738    0.002484    0.000000    3.000000
   540  Sc    c     9.444817   -9.086983   -0.000413    0.000000    3.000000
   541  Cl    c    13.729687   -1.657121    4.961311    0.000000    1.485000
   542  Cl    c    -5.152917  -12.875082   -1.489058    0.000000    1.485000
   543  Cl    c     1.142589  -12.880920   17.865068    0.000000    1.485000
   544  Cl    c   -14.874312   -7.268563   11.409285    0.000000    1.485000
   545  Cl    c    -8.296472    7.431159   17.864582    0.000000    1.485000
   546  Cl    c   -11.450884    9.251962    4.952316    0.000000    1.485000
   547  Cl    c    -5.433530   12.726925    4.952374    0.000000    1.485000
   548  Cl    c    10.586580  -10.741120   11.409416    0.000000    1.485000
   549  Cl    c    10.295788    0.000226   17.862104    0.000000    1.485000
   550  Cl    c   -11.438498  -12.551657    4.954596    0.000000    1.485000
   551  Cl    c    13.442626    1.814155    4.954227    0.000000    1.485000
   552  Cl    c    -8.298575  -14.701264   11.408832    0.000000    1.485000
   553  Sc    c   -12.591484    7.270131   12.901588    0.000000    3.000000
   554  Sc    c    -6.294376   -0.000277   -6.459386    0.000000    3.000000
   555  Sc    c    -3.147640   12.718656   12.898409    0.000000    3.000000
   556  Cl    c     1.141285  -16.515196    4.960708    0.000000    1.485000
   557  Cl    c    10.584340  -11.063280    4.960627    0.000000    1.485000
   558  Sc    c    -6.294205   -3.634399   -6.460535    0.000000    3.000000
   559  Sc    c     3.147919    1.816330   -6.460604    0.000000    3.000000
   560  Sc    c    -6.294252    7.268822   19.361890    0.000000    3.000000
   561  Sc    c     3.146598  -16.368542    6.455020    0.000000    3.000000
   562  Sc    c     6.293593   10.901608   12.902754    0.000000    3.000000
   563  Sc    c     9.455476  -12.726144    6.456150    0.000000    3.000000
   564  Cl    c   -11.729641    9.086924   11.407531    0.000000    1.485000
   565  Sc    c     3.148027   -5.451241   -6.457408    0.000000    3.000000
   566  Cl    c    -5.146348  -16.187153   11.406226    0.000000    1.485000
   567  Cl    c    -8.581845  -10.901578   17.863927    0.000000    1.485000
   568  Cl    c    10.582679   -3.469942   17.863579    0.000000    1.485000
   569  Cl    c    -7.161736   12.722770    7.945062    0.000000    1.485000
   570  Cl    c   -10.584946   10.747591    7.945065    0.000000    1.485000
   571  Sc    c   -12.591578  -10.904602   12.904710    0.000000    3.000000
   572  Cl    c   -13.441042    5.451168    1.497218    0.000000    1.485000
   573  Cl    c    -5.149075  -12.881098   17.863394    0.000000    1.485000
   574  Cl    c   -16.597551   -3.646084    7.962294    0.000000    1.485000
   575  Cl    c     8.308773   10.734301    7.962143    0.000000    1.485000
   576  Cl    c    -1.145594   12.549110   14.395478    0.000000    1.485000
   577  Sc    c     9.440868   -1.816986   19.360625    0.000000    3.000000
   578  Cl    c    13.734220    1.656037   11.408998    0.000000    1.485000
   579  Sc    c    -9.441240    9.084864   -0.003490    0.000000    3.000000
   580  Sc    c    -3.146580  -16.352954   12.907347    0.000000    3.000000
   581  Cl    c    -2.281189   10.904332   -1.496341    0.000000    1.485000
   582  Cl    c    -5.154181  -16.518932    4.956144    0.000000    1.485000
   583  Cl    c    13.735513   -5.613081    4.955847    0.000000    1.485000
   584  Cl    c   -11.441153   -8.919601   -1.496051    0.000000    1.485000
   585  Cl    c   -11.729070  -12.719650   11.408843    0.000000    1.485000
   586  Sc    c     6.293947  -14.535152   12.904874    0.000000    3.000000
   587  Cl    c    13.731232   -5.288357   11.407760    0.000000    1.485000
   588  Cl    c   -16.889231   -0.166552    7.956881    0.000000    1.485000
   589  Cl    c     5.442036   12.725338    7.956746    0.000000    1.485000
   590  Sc    c   -15.735190    1.817629   12.902891    0.000000    3.000000
   591  Sc    c     3.147046   12.718104   12.900908    0.000000    3.000000
   592  Cl    c   -11.723728    5.452300   -1.496343    0.000000    1.485000
   593  Sc    c    -3.146602    9.084586   19.360509    0.000000    3.000000
   594  Cl    c   -10.304151  -14.541486    7.951495    0.000000    1.485000
   595  Cl    c    14.597566   -0.163449    7.951329    0.000000    1.485000
   596  Cl    c    -4.292621    7.099912   -4.957056    0.000000    1.485000
   597  Cl    c    -1.143030   12.878687    1.494134    0.000000    1.485000
   598  Cl    c     2.000892    7.097863   -4.956569    0.000000    1.485000
   599  Cl    c    -2.001574  -14.370845   -1.494584    0.000000    1.485000
   600  Cl    c   -13.728494   -8.921916    1.496028    0.000000    1.485000
   601  Sc    c   -15.735661   -5.451906   12.904616    0.000000    3.000000
   602  Cl    c    10.582152    3.474995   -1.493883    0.000000    1.485000
   603  Cl    c   -13.726394    5.610519   14.395822    0.000000    1.485000
   604  Cl    c    11.444249   -8.915890    1.498458    0.000000    1.485000
   605  Cl    c    11.444627    5.611204   14.397793    0.000000    1.485000
   606  Sc    c    -9.440280  -12.718800    0.001486    0.000000    3.000000
   607  Cl    c    -7.155363    5.450448   20.855077    0.000000    1.485000
   608  Cl    c   -10.300932   -0.000180   20.855988    0.000000    1.485000
   609  Cl    c    -1.144513  -16.185003   14.404274    0.000000    1.485000
   610  Cl    c    -2.004766    0.160401   -7.953864    0.000000    1.485000
   611  Cl    c     0.862396   -1.817614   -7.954476    0.000000    1.485000
   612  Sc    c    -6.294084  -14.535290    0.002701    0.000000    3.000000
   613  Sc    c    12.588618   -3.634418   -0.000034    0.000000    3.000000
   614  Sc    c    -9.441350   -9.085322   19.360455    0.000000    3.000000
   615  Sc    c     9.440975    1.816795   19.361817    0.000000    3.000000
   616  Cl    c    -2.006269   -3.796072   -7.952577    0.000000    1.485000
   617  Cl    c    -7.435472    5.614814   -4.958115    0.000000    1.485000
   618  Cl    c   -10.582312    0.165672   -4.957378    0.000000    1.485000
   619  Cl    c    11.724644    5.448973    1.494255    0.000000    1.485000
   620  Cl    c     5.148964    5.612960   -4.958201    0.000000    1.485000
   621  Cl    c    -2.288636   10.900067   17.862105    0.000000    1.485000
   622  Cl    c     8.294193    0.166396   -4.955432    0.000000    1.485000
   623  Cl    c    -4.293744  -10.733862   -4.955932    0.000000    1.485000
   624  Cl    c    -0.860981  -16.351627    1.497098    0.000000    1.485000
   625  Cl    c     2.001590  -10.732332   -4.956070    0.000000    1.485000
   626  Cl    c   -11.441966   -8.917406   17.861394    0.000000    1.485000
   627  Cl    c   -13.728138   -9.244161   14.396875    0.000000    1.485000
   628  Sc    c    -3.146237  -12.718919   19.360121    0.000000    3.000000
   629  Cl    c   -10.582961   -3.798354   -4.957667    0.000000    1.485000
   630  Cl    c     8.293875   -3.798660   -4.955950    0.000000    1.485000
   631  Cl    c    11.444376   -9.245611   14.399080    0.000000    1.485000
   632  Sc    c    -3.147549    5.450873   -6.455788    0.000000    3.000000
   633  Cl    c    -4.287530    7.427225   20.853246    0.000000    1.485000
   634  Cl    c    10.581640   -7.427863   -1.493650    0.000000    1.485000
   635  Cl    c     2.006031    7.427723   20.853581    0.000000    1.485000
   636  Cl    c   -10.581977   -3.472708   20.853745    0.000000    1.485000
   637  Cl    c    -7.435447   -8.922955   20.853285    0.000000    1.485000
   638  Sc    c     3.148309  -16.352706   12.907812    0.000000    3.000000
   639  Cl    c     8.297946   -3.471201   20.855487    0.000000    1.485000
   640  Cl    c   -11.727021    5.449623   17.863583    0.000000    1.485000
   641  Cl    c    -7.435315  -16.511540    7.945232    0.000000    1.485000
   642  Cl    c     5.150977   -8.920516   20.856384    0.000000    1.485000
   643  Cl    c    14.870243   -3.634300    7.945244    0.000000    1.485000
   644  Cl    c     5.429486    5.450017   20.853466    0.000000    1.485000
   645  Cl    c     5.148311  -16.519294    7.952607    0.000000    1.485000
   646  Cl    c     8.585218  -14.535939    7.952587    0.000000    1.485000
[...]
   1457 z         -1.263142     -1.261030     0.002112    Cartesian   -0.17
   1458 x         -7.504758     -7.502686     0.002073    Cartesian   -0.03
   1458 y         12.999146     12.994276    -0.004870    Cartesian   -0.04
   1458 z          1.263142      1.262001    -0.001141    Cartesian   -0.09
   1459 x         13.798396     13.794877    -0.003518    Cartesian   -0.03
   1459 y         -9.365513     -9.362785     0.002728    Cartesian   -0.03
   1459 z         11.642631     11.644140     0.001509    Cartesian    0.01
   1460 x          7.505211      7.503908    -0.001304    Cartesian   -0.02
   1460 y        -16.070180    -16.068376     0.001805    Cartesian   -0.01
   1460 z         11.642631     11.641551    -0.001080    Cartesian   -0.01
   1461 x         10.164579     10.164654     0.000075    Cartesian    0.00
   1461 y        -10.900638    -10.901103    -0.000465    Cartesian    0.00
   1461 z         -1.263142     -1.263489    -0.000347    Cartesian    0.03
   1462 x          8.716333      8.713689    -0.002643    Cartesian   -0.03
   1462 y         10.900638     10.898291    -0.002346    Cartesian   -0.02
   1462 z          1.263142      1.262829    -0.000313    Cartesian   -0.02
   1463 x        -15.009970    -15.007612     0.002358    Cartesian   -0.02
   1463 y          0.000261      0.000039    -0.000223    Cartesian  -85.25
   1463 z         18.095518     18.094692    -0.000826    Cartesian   -0.00
   1464 x         -8.229334     -8.230657    -0.001323    Cartesian    0.02
   1464 y         -3.915063     -3.913080     0.001983    Cartesian   -0.05
   1464 z         -7.716029     -7.716836    -0.000808    Cartesian    0.01
   1465 x        -17.669337    -17.667605     0.001732    Cartesian   -0.01
   1465 y         -5.169281     -5.167961     0.001320    Cartesian   -0.03
   1465 z         11.642631     11.639877    -0.002754    Cartesian   -0.02
   1466 x          1.211121      1.211679     0.000558    Cartesian    0.05
   1466 y         -5.731880     -5.732864    -0.000985    Cartesian    0.02
   1466 z         24.548404     24.545702    -0.002702    Cartesian   -0.01
   1467 x          3.870942      3.870626    -0.000315    Cartesian   -0.01
   1467 y         14.534794     14.533560    -0.001234    Cartesian   -0.01
   1467 z         11.642631     11.639817    -0.002814    Cartesian   -0.02
   1468 x          8.716333      8.714035    -0.002297    Cartesian   -0.03
   1468 y         -7.267528     -7.266396     0.001131    Cartesian   -0.02
   1468 z         -5.189744     -5.188451     0.001293    Cartesian   -0.02
   1469 x          3.870942      3.872841     0.001899    Cartesian    0.05
   1469 y         -7.267005     -7.266811     0.000193    Cartesian   -0.00
   1469 z         -7.716029     -7.716589    -0.000561    Cartesian    0.01
   1470 x        -16.458216    -16.453044     0.005172    Cartesian   -0.03
   1470 y          3.633372      3.631750    -0.001622    Cartesian   -0.04
   1470 z         14.168915     14.169625     0.000710    Cartesian    0.01
   1471 x        -13.311397    -13.309491     0.001906    Cartesian   -0.01
   1471 y          9.083821      9.083093    -0.000728    Cartesian   -0.01
   1471 z         14.168915     14.167810    -0.001105    Cartesian   -0.01
   1472 x          8.228881      8.228012    -0.000869    Cartesian   -0.01
   1472 y        -14.815701    -14.811017     0.004684    Cartesian   -0.03
   1472 z         14.168915     14.166184    -0.002732    Cartesian   -0.02
   1473 x          4.358393      4.357094    -0.001298    Cartesian   -0.03
   1473 y        -17.886997    -17.895328    -0.008332    Cartesian    0.05
   1473 z          5.189744      5.190066     0.000322    Cartesian    0.01
   1474 x         10.164579     10.172535     0.007957    Cartesian    0.08
   1474 y        -14.534271    -14.537362    -0.003091    Cartesian    0.02
   1474 z          5.189744      5.190024     0.000280    Cartesian    0.01
   1475 x        -18.156788    -18.151946     0.004843    Cartesian   -0.03
   1475 y         -1.816555     -1.816412     0.000143    Cartesian   -0.01
   1475 z         11.642631     11.643745     0.001114    Cartesian    0.01
   1476 x          1.211574      1.209732    -0.001843    Cartesian   -0.15
   1476 y         12.998884     12.993915    -0.004970    Cartesian   -0.04
   1476 z         -1.263142     -1.260006     0.003136    Cartesian   -0.25
   1477 x          1.211574      1.209952    -0.001622    Cartesian   -0.13
   1477 y          5.731618      5.727999    -0.003619    Cartesian   -0.06
   1477 z         -7.716029     -7.715328     0.000701    Cartesian   -0.01
   1478 x        -10.652030    -10.649336     0.002694    Cartesian   -0.03
   1478 y        -14.815701    -14.811108     0.004593    Cartesian   -0.03
   1478 z         14.168915     14.165142    -0.003774    Cartesian   -0.03
   1479 x          0.724123      0.726375     0.002253    Cartesian    0.31
   1479 y        -16.351087    -16.347795     0.003292    Cartesian   -0.02
   1479 z         -1.263142     -1.259605     0.003537    Cartesian   -0.28
   1480 x        -16.458216    -16.454074     0.004142    Cartesian   -0.03
   1480 y         -7.267528     -7.266404     0.001124    Cartesian   -0.02
   1480 z         14.168915     14.169366     0.000451    Cartesian    0.00
   1481 x          1.935244      1.932306    -0.002938    Cartesian   -0.15
   1481 y         14.253364     14.247611    -0.005753    Cartesian   -0.04
   1481 z          1.263142      1.266874     0.003732    Cartesian    0.30
   1482 x         -4.358393     -4.359741    -0.001349    Cartesian    0.03
   1482 y         14.253364     14.248194    -0.005170    Cartesian   -0.04
   1482 z          1.263142      1.266297     0.003155    Cartesian    0.25
   1483 x          5.569514      5.568430    -0.001084    Cartesian   -0.02
   1483 y        -16.351610    -16.349107     0.002504    Cartesian   -0.02
   1483 z          1.263142      1.263527     0.000385    Cartesian    0.03
   1484 x         -1.935244     -1.933183     0.002061    Cartesian   -0.11
   1484 y         -6.986098     -6.982208     0.003889    Cartesian   -0.06
   1484 z         24.548404     24.544365    -0.004039    Cartesian   -0.02
   1485 x          3.870942      3.866529    -0.004412    Cartesian   -0.11
   1485 y         -3.633372     -3.633164     0.000208    Cartesian   -0.01
   1485 z         24.548404     24.544343    -0.004062    Cartesian   -0.02
   1486 x        -14.522971    -14.519410     0.003561    Cartesian   -0.02
   1486 y          3.352203      3.348409    -0.003794    Cartesian   -0.11
   1486 z         18.095518     18.092124    -0.003393    Cartesian   -0.02
   1487 x         10.652030     10.648504    -0.003526    Cartesian   -0.03
   1487 y          7.548435      7.544614    -0.003820    Cartesian   -0.05
   1487 z         -1.263142     -1.259989     0.003153    Cartesian   -0.25
   1488 x         -3.870942     -3.872248    -0.001306    Cartesian    0.03
   1488 y         14.534271     14.529340    -0.004931    Cartesian   -0.03
   1488 z         14.168915     14.163483    -0.005433    Cartesian   -0.04
   1489 x          7.504758      7.499722    -0.005037    Cartesian   -0.07
   1489 y        -16.632779    -16.624031     0.008748    Cartesian   -0.05
   1489 z          5.189744      5.194577     0.004832    Cartesian    0.09
   1490 x        -18.156788    -18.149723     0.007066    Cartesian   -0.04
   1490 y          1.817078      1.815530    -0.001548    Cartesian   -0.09
   1490 z          5.189744      5.194127     0.004383    Cartesian    0.08
   1491 x         13.798396     13.793683    -0.004712    Cartesian   -0.03
   1491 y         -2.098247     -2.095590     0.002656    Cartesian   -0.13
   1491 z         -1.263142     -1.260063     0.003080    Cartesian   -0.24
   1492 x          4.358393      4.356165    -0.002228    Cartesian   -0.05
   1492 y         14.815701     14.808754    -0.006947    Cartesian   -0.05
   1492 z          5.189744      5.194166     0.004422    Cartesian    0.09
   1493 x         13.311397     13.307928    -0.003469    Cartesian   -0.03
   1493 y         -5.450188     -5.449011     0.001177    Cartesian   -0.02
   1493 z         -1.263142     -1.264638    -0.001496    Cartesian    0.12
   1494 x         15.009970     15.004869    -0.005101    Cartesian   -0.03
   1494 y         -0.000261     -0.000533    -0.000271    Cartesian  103.69
   1494 z          1.263142      1.262023    -0.001119    Cartesian   -0.09
   1495 x         -5.569514     -5.570933    -0.001419    Cartesian    0.03
   1495 y          1.817078      1.817007    -0.000071    Cartesian   -0.00
   1495 z         24.548404     24.545543    -0.002861    Cartesian   -0.01
   1496 x         -1.935244     -1.934426     0.000818    Cartesian   -0.04
   1496 y          3.914802      3.916010     0.001208    Cartesian    0.03
   1496 z         24.548404     24.545511    -0.002894    Cartesian   -0.01
   1497 x          7.504758      7.503074    -0.001684    Cartesian   -0.02
   1497 y        -12.999146    -12.996916     0.002230    Cartesian   -0.02
   1497 z         18.095518     18.095094    -0.000424    Cartesian   -0.00
   1498 x          1.211121      1.209330    -0.001791    Cartesian   -0.15
   1498 y         -9.365513     -9.361800     0.003713    Cartesian   -0.04
   1498 z         -7.716029     -7.714520     0.001509    Cartesian   -0.02
   1499 x         -5.082516     -5.081030     0.001486    Cartesian   -0.03
   1499 y         -5.731880     -5.733513    -0.001633    Cartesian    0.03
   1499 z         24.548404     24.545206    -0.003199    Cartesian   -0.01
   1500 x          4.357940      4.358600     0.000660    Cartesian    0.02
   1500 y         -0.281430     -0.283543    -0.002113    Cartesian    0.75
   1500 z         24.548404     24.545171    -0.003233    Cartesian   -0.01
   1501 x          5.082063      5.081894    -0.000169    Cartesian   -0.00
   1501 y          8.802914      8.802502    -0.000412    Cartesian   -0.00
   1501 z         20.621802     20.622291     0.000489    Cartesian    0.00
   1502 x         11.375700     11.372392    -0.003308    Cartesian   -0.03
   1502 y          8.802914      8.798171    -0.004743    Cartesian   -0.05
   1502 z          1.263142      1.266764     0.003622    Cartesian    0.29
   1503 x        -13.311397    -13.311079     0.000318    Cartesian   -0.00
   1503 y        -12.717977    -12.718197    -0.000220    Cartesian    0.00
   1503 z         14.168915     14.168274    -0.000642    Cartesian   -0.00
   1504 x          7.017760      7.018729     0.000969    Cartesian    0.01
   1504 y         -1.816555     -1.816868    -0.000313    Cartesian    0.02
   1504 z         -7.716029     -7.716229    -0.000201    Cartesian    0.00
   1505 x         -7.505211     -7.504144     0.001068    Cartesian   -0.01
   1505 y          8.802914      8.803775     0.000861    Cartesian    0.01
   1505 z         20.621802     20.621501    -0.000301    Cartesian   -0.00
   1506 x        -13.798849    -13.796355     0.002493    Cartesian   -0.02
   1506 y          8.802914      8.800541    -0.002374    Cartesian   -0.03
   1506 z          1.263142      1.263916     0.000774    Cartesian    0.06
   1507 x         -5.082063     -5.082748    -0.000685    Cartesian    0.01
   1507 y         12.998884     12.993735    -0.005149    Cartesian   -0.04
   1507 z         -1.263142     -1.260395     0.002747    Cartesian   -0.22
   1508 x        -16.458216    -16.456611     0.001605    Cartesian   -0.01
   1508 y          7.267005      7.269644     0.002639    Cartesian    0.04
   1508 z          7.716029      7.720297     0.004268    Cartesian    0.06
   1509 x         -5.082063     -5.083496    -0.001433    Cartesian    0.03
   1509 y          5.731618      5.728024    -0.003595    Cartesian   -0.06
   1509 z         -7.716029     -7.714648     0.001380    Cartesian   -0.02
   1510 x         -1.211574     -1.214675    -0.003101    Cartesian    0.26
   1510 y         16.070180     16.069967    -0.000213    Cartesian   -0.00
   1510 z          7.716029      7.720304     0.004275    Cartesian    0.06
   1511 x          3.870942      3.869606    -0.001335    Cartesian   -0.03
   1511 y        -18.167904    -18.165351     0.002553    Cartesian   -0.01
   1511 z         11.642631     11.641594    -0.001037    Cartesian   -0.01
   1512 x          2.422696      2.418546    -0.004149    Cartesian   -0.17
   1512 y         14.534271     14.529630    -0.004640    Cartesian   -0.03
   1512 z         14.168915     14.163410    -0.005506    Cartesian   -0.04
   1513 x         -8.228881     -8.225955     0.002927    Cartesian   -0.04
   1513 y        -14.253364    -14.247650     0.005714    Cartesian   -0.04
   1513 z         18.095518     18.091755    -0.003763    Cartesian   -0.02
   1514 x         14.522519     14.519467    -0.003051    Cartesian   -0.02
   1514 y          3.352464      3.349696    -0.002769    Cartesian   -0.08
   1514 z          1.263142      1.266094     0.002952    Cartesian    0.23
   1515 x        -11.376153    -11.375774     0.000379    Cartesian   -0.00
   1515 y         12.436286     12.433943    -0.002343    Cartesian   -0.02
   1515 z         11.642631     11.639831    -0.002800    Cartesian   -0.02
   1516 x        -11.376153    -11.372437     0.003715    Cartesian   -0.03
   1516 y          8.802653      8.797343    -0.005309    Cartesian   -0.06
   1516 z         18.095518     18.091698    -0.003820    Cartesian   -0.02
   1517 x        -11.376153    -11.374901     0.001252    Cartesian   -0.01
   1517 y        -12.999146    -12.992914     0.006232    Cartesian   -0.05
   1517 z         -1.263142     -1.258137     0.005005    Cartesian   -0.40
   1518 x         10.652030     10.648594    -0.003436    Cartesian   -0.03
   1518 y         11.182068     11.178018    -0.004050    Cartesian   -0.04
   1518 z         11.642631     11.643821     0.001190    Cartesian    0.01
   1519 x        -14.522971    -14.520029     0.002943    Cartesian   -0.02
   1519 y         -7.548696     -7.549578    -0.000881    Cartesian    0.01
   1519 z         18.095518     18.093490    -0.002028    Cartesian   -0.01
   1520 x        -16.945667    -16.942460     0.003207    Cartesian   -0.02
   1520 y          3.352464      3.351514    -0.000951    Cartesian   -0.03
   1520 z          1.263142      1.263376     0.000233    Cartesian    0.02
   1521 x         -8.716333     -8.716225     0.000108    Cartesian   -0.00
   1521 y         10.901161     10.899291    -0.001870    Cartesian   -0.02
   1521 z         18.095518     18.094580    -0.000938    Cartesian   -0.01
   1522 x         10.164579     10.159701    -0.004878    Cartesian   -0.05
   1522 y        -10.900638    -10.899293     0.001345    Cartesian   -0.01
   1522 z         18.095518     18.092274    -0.003244    Cartesian   -0.02
   1523 x        -13.311397    -13.302000     0.009397    Cartesian   -0.07
   1523 y         -1.817078     -1.816960     0.000118    Cartesian   -0.01
   1523 z         -5.189744     -5.183468     0.006276    Cartesian   -0.12
   1524 x         -7.017760     -7.012577     0.005183    Cartesian   -0.07
   1524 y          9.083821      9.081672    -0.002149    Cartesian   -0.02
   1524 z         -5.189744     -5.186116     0.003628    Cartesian   -0.07
   1525 x         -5.569514     -5.565296     0.004218    Cartesian   -0.08
   1525 y        -16.351087    -16.347181     0.003906    Cartesian   -0.02
   1525 z         -1.263142     -1.258571     0.004572    Cartesian   -0.36
   1526 x         13.798849     13.794677    -0.004172    Cartesian   -0.03
   1526 y          2.097985      2.095174    -0.002811    Cartesian   -0.13
   1526 z         -1.263142     -1.260259     0.002884    Cartesian   -0.23
   1527 x          1.211574      1.210709    -0.000866    Cartesian   -0.07
   1527 y         12.998884     12.995962    -0.002922    Cartesian   -0.02
   1527 z         18.095518     18.094765    -0.000753    Cartesian   -0.00
   1528 x         11.863151     11.856954    -0.006197    Cartesian   -0.05
   1528 y          9.083821      9.082084    -0.001737    Cartesian   -0.02
   1528 z         14.168915     14.165580    -0.003335    Cartesian   -0.02
   1529 x          0.724123      0.721747    -0.002376    Cartesian   -0.33
   1529 y        -16.351087    -16.348992     0.002095    Cartesian   -0.01
   1529 z         18.095518     18.093381    -0.002137    Cartesian   -0.01
   1530 x         14.522519     14.519984    -0.002534    Cartesian   -0.02
   1530 y         -7.548435     -7.547167     0.001268    Cartesian   -0.02
   1530 z          1.263142      1.263802     0.000660    Cartesian    0.05
   1531 x         10.651577     10.647998    -0.003579    Cartesian   -0.03
   1531 y        -14.815962    -14.811053     0.004909    Cartesian   -0.03
   1531 z         11.642631     11.644410     0.001779    Cartesian    0.02
   1532 x         10.652030     10.649758    -0.002272    Cartesian   -0.02
   1532 y          7.548435      7.546283    -0.002152    Cartesian   -0.03
   1532 z         18.095518     18.094846    -0.000671    Cartesian   -0.00
   1533 x        -16.945667    -16.940418     0.005249    Cartesian   -0.03
   1533 y         -7.548435     -7.544186     0.004249    Cartesian   -0.06
   1533 z          1.263142      1.261470    -0.001672    Cartesian   -0.13
   1534 x         13.798396     13.796022    -0.002373    Cartesian   -0.02
   1534 y         -2.098247     -2.098035     0.000212    Cartesian   -0.01
   1534 z         18.095518     18.094124    -0.001394    Cartesian   -0.01
   1535 x         -8.229334     -8.226712     0.002623    Cartesian   -0.03
   1535 y         -0.281430     -0.284835    -0.003405    Cartesian    1.21
   1535 z         24.548404     24.544266    -0.004138    Cartesian   -0.02
   1536 x          1.211121      1.212747     0.001625    Cartesian    0.13
   1536 y          5.169020      5.165039    -0.003981    Cartesian   -0.08
   1536 z         24.548404     24.544231    -0.004173    Cartesian   -0.02
   1537 x          5.569514      5.568526    -0.000988    Cartesian   -0.02
   1537 y          9.083821      9.081757    -0.002065    Cartesian   -0.02
   1537 z         -5.189744     -5.187729     0.002015    Cartesian   -0.04
--------------------------------------------------------------------------------


  Time to end of optimisation  =      448.1610 seconds


  Peak dynamic memory used =     344.89 MB 


  Timing analysis for GULP :

--------------------------------------------------------------------------------
  Task / Subroutine                                          Time (Seconds)
--------------------------------------------------------------------------------
  Calculation of reciprocal space energy and derivatives          0.0060
  Calculation of reciprocal space energy using symmetry           0.0663
  Calculation of real space energy and derivatives                0.0272
  Calculation of real space energy using symmetry                 1.1785
  Calculation for region 1 energy and derivatives (2-b)         136.7529
  Calculation for region 2a energy                               74.7854
  Calculation for region 2b energy                                0.0114
  Calculation and manipulation of Hessian matrix                  0.0767
  Calculation of matrix inversion                               233.2189
  Symmetry generation of equivalent positions                     0.0034
  Global summation overhead                                       0.0004
--------------------------------------------------------------------------------
  Total CPU time                                                448.1611
--------------------------------------------------------------------------------


  Dump file written as ScCl3.grs



  **** GULP has completed with   2 warnings - beware! ****

  Job Finished at 11:41.31 18th August     2021                               

