********************************************************************************
*                       GENERAL UTILITY LATTICE PROGRAM                        *
*                                 Julian Gale                                  *
*                       Curtin Institute for Computation                       *
*                    School of Molecular and Life Sciences                     *
*                    Curtin University, Western Australia                      *
********************************************************************************
* Version = 5.2.0 * Last modified =  10th September 2020                       *
********************************************************************************
*  optimise     - perform optimisation run                                     *
*  conp         - constant pressure calculation                                *
*  property     - calculate properties for final geometry                      *
*  defect       - perform defect calculation after bulk run                    *
*  compare      - compare initial and final structures                         *
********************************************************************************

  Job Started  at 11:34.08 18th August     2021                               

  Number of CPUs =     1


  Total number of configurations input =      1

********************************************************************************
*  Input for Configuration =   1                                               *
********************************************************************************

  Formula = Sc2Cl6                                                      

  Number of irreducible atoms/shells =       3


  Total number atoms/shells =      14

  Dimensionality = 3               :  Bulk   


  Symmetry :

  Crystal family                   :  Hexagonal   
  Crystal class  (Groth - 1921)    :  Trigonal Rhombohedral                

  Space group (centrosymmetric)    :  R -3            

  Patterson group                  :  R -3     

  Cartesian lattice vectors (Angstroms) :

        3.246588    1.874418    6.441540
       -3.246588    1.874418    6.441540
        0.000000   -3.748837    6.441540

  Cell parameters (Angstroms/Degrees):

  a =       7.4530    alpha =  51.6480
  b =       7.4530    beta  =  51.6480
  c =       7.4530    gamma =  51.6480

  Initial cell volume =         235.198534 Angs**3

  Temperature of configuration =   0.00     K 

  Pressure of configuration =         0.000 GPa 

  Fractional coordinates of asymmetric unit :

--------------------------------------------------------------------------------
   No.  Atomic       x           y          z         Charge      Occupancy
        Label      (Frac)      (Frac)     (Frac)        (e)         (Frac)  
--------------------------------------------------------------------------------
      1 Sc    c    0.333900    0.333900    0.333900 *   3.00000    1.000000    
      2 Cl    c    0.073700 *  0.443900 *  0.705300 *   1.48500    1.000000    
      3 Cl    s    0.073700 *  0.443900 *  0.705300 *  -2.48500    1.000000    
--------------------------------------------------------------------------------


  Constraints : 

--------------------------------------------------------------------------------
  Constraint no.      Unconstrained     Constrained    Coefficient    Offset
                         Variable         Variable
--------------------------------------------------------------------------------
           1              Strain 1        Strain 2       1.00000      0.0000
--------------------------------------------------------------------------------


********************************************************************************
*  General input information                                                   *
********************************************************************************

  Species output for all configurations : 

--------------------------------------------------------------------------------
  Species    Type    Atomic    Atomic    Charge       Radii (Angs)     Library
                     Number     Mass       (e)     Cova   Ionic  VDW   Symbol
--------------------------------------------------------------------------------
    Sc       Core       21      44.96   3.000000   1.440  0.000  2.150          
    Cl       Core       17      35.45   1.485000   0.990  0.000  1.650          
    Cl       Shell      17       0.00  -2.485000   0.990  0.000  1.650          
--------------------------------------------------------------------------------


  Lattice summation method               =    Ewald          (3-D)
                                         =    Parry          (2-D)
                                         =    Saunders et al (1-D)
  Accuracy factor for lattice sums       =   12.000


  Analytic derivatives to be used

  Time limit = Infinity

  Maximum range for interatomic potentials =    100000.000000 Angstroms

  General interatomic potentials :

--------------------------------------------------------------------------------
Atom  Types   Potential      Parameter       Value         Units   Cutoffs(Ang)
  1     2                                                            Min /  Max 
--------------------------------------------------------------------------------
Cl   c Cl   s Spring (c-s)  Spring k 2       29.380000    eV*Ang^-2 0.000  0.800
                            Spring k 4       0.0000000    eV*Ang^-4 
--------------------------------------------------------------------------------
Sc   c Cl   s Buckingham    Buckingham A     12131.350    eV        0.000 12.000
                            Buckingham rho  0.25070000    Ang       
                            Buckingham C     0.0000000    eV*Ang^6  
--------------------------------------------------------------------------------
Cl   s Cl   s Buckingham    Buckingham A     1227.2000    eV        0.000 12.000
                            Buckingham rho  0.32100000    Ang       
                            Buckingham C     14.530000    eV*Ang^6  
--------------------------------------------------------------------------------

********************************************************************************
*  Output for configuration   1                                                *
********************************************************************************


  Components of energy : 

--------------------------------------------------------------------------------
  Interatomic potentials     =           6.77737779 eV    
  Monopole - monopole (real) =         -30.86300284 eV    
  Monopole - monopole (recip)=         -65.52201623 eV    
  Monopole - monopole (total)=         -96.38501907 eV    
--------------------------------------------------------------------------------
  Total lattice energy : 
    Primitive unit cell      =         -89.60764128 eV    
    Non-primitive unit cell  =        -268.82292384 eV    
--------------------------------------------------------------------------------
  Total lattice energy (in kJmol-1): 
    Primitive unit cell      =           -8645.7676 kJ/(mole unit cells)
    Non-primitive unit cell  =          -25937.3028 kJ/(mole unit cells)
--------------------------------------------------------------------------------


  Number of variables =        9

  Maximum number of calculations  =          1000
  Maximum Hessian update interval =            10
  Maximum step size               =   1.000000000
  Maximum parameter tolerance     =   0.000010000
  Maximum function  tolerance     =   0.000010000
  Maximum gradient  tolerance     =   0.001000000
  Maximum gradient  component     =   0.010000000

  Symmetry constrained optimisation

  Symmetry used for second derivatives

  Cell parameters to be optimised using strains

  Newton-Raphson optimiser to be used

  BFGS hessian update to be used

  Lower half triangular hessian to be used

  Start of bulk optimisation :

  Cycle:      0 Energy:       -89.607641  Gnorm:    194.660938  CPU:    0.016
  ** Hessian calculated **
  Cycle:      1 Energy:       -99.336245  Gnorm:     16.922396  CPU:    0.031
  Cycle:      2 Energy:       -99.561570  Gnorm:      7.561347  CPU:    0.048
  Cycle:      3 Energy:       -99.729576  Gnorm:      4.412393  CPU:    0.065
  Cycle:      4 Energy:       -99.829400  Gnorm:      2.218678  CPU:    0.083
  Cycle:      5 Energy:       -99.844572  Gnorm:      0.723795  CPU:    0.098
  Cycle:      6 Energy:       -99.846381  Gnorm:      0.448826  CPU:    0.116
  Cycle:      7 Energy:       -99.846853  Gnorm:      0.344817  CPU:    0.131
  Cycle:      8 Energy:       -99.849123  Gnorm:      0.319075  CPU:    0.156
  Cycle:      9 Energy:       -99.851112  Gnorm:      0.253552  CPU:    0.177
  Cycle:     10 Energy:       -99.852597  Gnorm:      0.161985  CPU:    0.200
  ** Hessian calculated **
  Cycle:     11 Energy:       -99.854095  Gnorm:      0.114649  CPU:    0.230
  Cycle:     12 Energy:       -99.855517  Gnorm:      0.062367  CPU:    0.252
  Cycle:     13 Energy:       -99.856271  Gnorm:      0.091299  CPU:    0.271
  Cycle:     14 Energy:       -99.856398  Gnorm:      0.057833  CPU:    0.294
  Cycle:     15 Energy:       -99.709969  Gnorm:      9.382415  CPU:    0.355
  ** Hessian calculated **
  Cycle:     16 Energy:       -99.834592  Gnorm:      3.493936  CPU:    0.383
  Cycle:     17 Energy:       -99.855984  Gnorm:      0.183406  CPU:    0.398
  Cycle:     18 Energy:       -99.856377  Gnorm:      0.024886  CPU:    0.417
  ** Hessian calculated **
  Cycle:     19 Energy:       -99.856378  Gnorm:      0.010051  CPU:    0.437
  Cycle:     20 Energy:       -99.856379  Gnorm:      0.013393  CPU:    0.451
  Cycle:     21 Energy:       -99.856379  Gnorm:      0.009613  CPU:    0.466
  Cycle:     22 Energy:       -99.856380  Gnorm:      0.011718  CPU:    0.480
  Cycle:     23 Energy:       -99.856381  Gnorm:      0.013744  CPU:    0.494
  Cycle:     24 Energy:       -99.856381  Gnorm:      0.012669  CPU:    0.509
  Cycle:     25 Energy:       -99.856382  Gnorm:      0.013916  CPU:    0.523
  Cycle:     26 Energy:       -99.856383  Gnorm:      0.012516  CPU:    0.538
  Cycle:     27 Energy:       -99.856383  Gnorm:      0.006850  CPU:    0.552
  Cycle:     28 Energy:       -99.856383  Gnorm:      0.005130  CPU:    0.566
  ** Hessian calculated **
  Cycle:     29 Energy:       -99.856383  Gnorm:      0.005098  CPU:    0.586
  Cycle:     30 Energy:       -99.856383  Gnorm:      0.005050  CPU:    0.601
  Cycle:     31 Energy:       -99.856384  Gnorm:      0.004978  CPU:    0.615
  Cycle:     32 Energy:       -99.856384  Gnorm:      0.004870  CPU:    0.630
  Cycle:     33 Energy:       -99.856385  Gnorm:      0.004708  CPU:    0.645
  Cycle:     34 Energy:       -99.856385  Gnorm:      0.004465  CPU:    0.659
  Cycle:     35 Energy:       -99.856387  Gnorm:      0.004100  CPU:    0.674
  Cycle:     36 Energy:       -99.856389  Gnorm:      0.003183  CPU:    0.692
  Cycle:     37 Energy:       -99.856390  Gnorm:      0.002732  CPU:    0.710
  Cycle:     38 Energy:       -99.856390  Gnorm:      0.002622  CPU:    0.728
  ** Hessian calculated **
  Cycle:     39 Energy:       -99.856390  Gnorm:      0.002617  CPU:    0.762
  Cycle:     40 Energy:       -99.856390  Gnorm:      0.002611  CPU:    0.787
  Cycle:     41 Energy:       -99.856390  Gnorm:      0.002596  CPU:    0.812
  Cycle:     42 Energy:       -99.856390  Gnorm:      0.002573  CPU:    0.837
  Cycle:     43 Energy:       -99.856391  Gnorm:      0.002556  CPU:    0.865
  Cycle:     44 Energy:       -99.856391  Gnorm:      0.002551  CPU:    0.880
  Cycle:     45 Energy:       -99.856376  Gnorm:      0.010367  CPU:    0.922
  ** Hessian calculated **
  Cycle:     46 Energy:       -99.856376  Gnorm:      0.003162  CPU:    0.942
  Cycle:     47 Energy:       -99.856376  Gnorm:      0.004154  CPU:    0.956
  Cycle:     48 Energy:       -99.856376  Gnorm:      0.004258  CPU:    0.970
  Cycle:     49 Energy:       -99.856376  Gnorm:      0.003063  CPU:    0.985
  Cycle:     50 Energy:       -99.856376  Gnorm:      0.003213  CPU:    0.999
  Cycle:     51 Energy:       -99.856376  Gnorm:      0.002448  CPU:    1.014
  Cycle:     52 Energy:       -99.856376  Gnorm:      0.002432  CPU:    1.028
  Cycle:     53 Energy:       -99.856376  Gnorm:      0.002202  CPU:    1.043
  Cycle:     54 Energy:       -99.856376  Gnorm:      0.003030  CPU:    1.057
  Cycle:     55 Energy:       -99.856377  Gnorm:      0.003988  CPU:    1.071
  ** Hessian calculated **
  Cycle:     56 Energy:       -99.856377  Gnorm:      0.003870  CPU:    1.091
  Cycle:     57 Energy:       -99.856377  Gnorm:      0.003694  CPU:    1.106
  Cycle:     58 Energy:       -99.856377  Gnorm:      0.003429  CPU:    1.120
  Cycle:     59 Energy:       -99.856377  Gnorm:      0.003032  CPU:    1.135
  Cycle:     60 Energy:       -99.856378  Gnorm:      0.002436  CPU:    1.149
  Cycle:     61 Energy:       -99.856378  Gnorm:      0.001545  CPU:    1.163


  **** Optimisation achieved ****


  Final energy =     -99.85637867 eV
  Final Gnorm  =       0.00022970

  Components of energy : 

--------------------------------------------------------------------------------
  Interatomic potentials     =          20.55356182 eV    
  Monopole - monopole (real) =          80.99460097 eV    
  Monopole - monopole (recip)=        -201.40454146 eV    
  Monopole - monopole (total)=        -120.40994049 eV    
--------------------------------------------------------------------------------
  Total lattice energy : 
    Primitive unit cell      =         -99.85637867 eV    
    Non-primitive unit cell  =        -299.56913600 eV    
--------------------------------------------------------------------------------
  Total lattice energy (in kJmol-1): 
    Primitive unit cell      =           -9634.6141 kJ/(mole unit cells)
    Non-primitive unit cell  =          -28903.8423 kJ/(mole unit cells)
--------------------------------------------------------------------------------

  Final asymmetric unit coordinates :

--------------------------------------------------------------------------------
   No.  Atomic        x           y           z         Radius
        Label       (Frac)      (Frac)      (Frac)       (Angs) 
--------------------------------------------------------------------------------
     1  Sc    c     0.333302    0.333302    0.333302    0.000000
     2  Cl    c     0.077345    0.440528    0.713912    0.000000
     3  Cl    s     0.065297    0.450169    0.680282    0.000000
--------------------------------------------------------------------------------

  Final Cartesian lattice vectors (Angstroms) :

        3.146819    1.816817    6.452887
       -3.146819    1.816817    6.452887
        0.000000   -3.633633    6.452887


  Final cell parameters and derivatives :

--------------------------------------------------------------------------------
       a            7.405608 Angstrom     dE/de1(xx)    -0.000123 eV/strain
       b            7.405608 Angstrom     dE/de2(yy)     0.000000 eV/strain
       c            7.405608 Angstrom     dE/de3(zz)    -0.000049 eV/strain
       alpha       50.291669 Degrees      dE/de4(yz)     0.000000 eV/strain
       beta        50.291669 Degrees      dE/de5(xz)     0.000000 eV/strain
       gamma       50.291669 Degrees      dE/de6(xy)     0.000000 eV/strain
--------------------------------------------------------------------------------

  Primitive cell volume =           221.354351 Angs**3

  Density of cell =      2.270208 g/cm**3

  Non-primitive lattice parameters :

  a    =     6.293637  b   =     6.293637  c    =    19.358660
  alpha=    90.000000  beta=    90.000000  gamma=   120.000000

  Non-primitive cell volume =           664.063053 Angs**3


  Final internal derivatives :

--------------------------------------------------------------------------------
   No.  Atomic          a             b             c           Radius
        Label          (eV)          (eV)          (eV)        (eV/Angs)
--------------------------------------------------------------------------------
      1 Sc    c       0.000000      0.000000      0.000333      0.000000
      2 Cl    c      -0.000512      0.000026      0.001871      0.000000
      3 Cl    s      -0.000302      0.000461     -0.000278      0.000000
--------------------------------------------------------------------------------
  Maximum abs         0.000512      0.000461      0.001871      0.000000
--------------------------------------------------------------------------------

  Comparison of initial and final structures : 

--------------------------------------------------------------------------------
  Parameter   Initial value   Final value   Difference    Units      Percent
--------------------------------------------------------------------------------
    Volume       705.595603    664.063053   -41.532550    Angs**3     -5.89
    a              6.493176      6.293637    -0.199538    Angstroms   -3.07
    b              6.493176      6.293637    -0.199538    Angstroms   -3.07
    c             19.324619     19.358660     0.034041    Angstroms    0.18
    alpha         90.000000     90.000000     0.000000    Degrees      0.00
    beta          90.000000     90.000000     0.000000    Degrees      0.00
    gamma        120.000000    120.000000     0.000000    Degrees      0.00
      1 x          0.000000      0.000000     0.000000    Fractional   0.00
      1 y          0.000000      0.000000     0.000000    Fractional   0.00
      1 z          0.333900      0.333302     0.000598    Fractional   0.18
      2 x          0.666067      0.666750     0.000683    Fractional   0.10
      2 y          0.702333      0.696683     0.005650    Fractional   0.80
      2 z          0.407633      0.410595     0.002962    Fractional   0.73
      3 x          0.666067      0.666715     0.000648    Fractional   0.10
      3 y          0.702333      0.718301     0.015968    Fractional   2.27
      3 z          0.407633      0.398583     0.009051    Fractional   2.22
--------------------------------------------------------------------------------


  Born effective charge tensors : 

-------------------------------------------------------------------------------
  Atom             x           y             z
-------------------------------------------------------------------------------
    1 Sc    x       1.8547     -0.0008      0.0000
            y       0.0008      1.8547      0.0000
            z       0.0000      0.0000      1.3341
-------------------------------------------------------------------------------
    2 Cl    x      -0.6622     -0.0739     -0.0054
            y      -0.0744     -0.5743      0.0077
            z      -0.0118      0.0242     -0.4447
-------------------------------------------------------------------------------




  Elastic Constant Matrix: (Units=GPa)

-------------------------------------------------------------------------------
  Indices      1         2         3         4         5         6    
-------------------------------------------------------------------------------
       1     59.0042   36.7253    0.0676   -0.0391    0.0164    0.0000
       2     36.7253   59.0042    0.0676    0.0391   -0.0164   -0.0000
       3      0.0676    0.0676    1.3662   -0.0000   -0.0000    0.0000
       4     -0.0391    0.0391   -0.0000    0.1362   -0.0000   -0.0164
       5      0.0164   -0.0164   -0.0000   -0.0000    0.1362   -0.0391
       6      0.0000   -0.0000    0.0000   -0.0164   -0.0391   11.1394
-------------------------------------------------------------------------------


  Elastic Compliance Matrix: (Units=1/GPa)

-------------------------------------------------------------------------------
  Indices      1         2         3         4         5         6    
-------------------------------------------------------------------------------
       1    0.027693 -0.017246 -0.000517  0.012917 -0.005403 -0.000000
       2   -0.017246  0.027693 -0.000517 -0.012917  0.005403  0.000000
       3   -0.000517 -0.000517  0.731998 -0.000000  0.000000 -0.000000
       4    0.012917 -0.012917 -0.000000  7.352608  0.000000  0.010807
       5   -0.005403  0.005403  0.000000  0.000000  7.352608  0.025834
       6   -0.000000  0.000000 -0.000000  0.010807  0.025834  0.089878
-------------------------------------------------------------------------------

  Mechanical properties :

-------------------------------------------------------------------------------
  Convention :                    Reuss         Voigt         Hill
-------------------------------------------------------------------------------
  Bulk  Modulus (GPa)     =       1.33187      21.45510      11.39349
  Shear Modulus (GPa)     =       0.31507       7.78329       4.04918
-------------------------------------------------------------------------------
  Velocity S-wave (km/s)  =       0.37254       1.85161       1.33552
  Velocity P-wave (km/s)  =       0.87848       3.74459       2.71972
-------------------------------------------------------------------------------
  Compressibility (1/GPa) =    0.75082247
-------------------------------------------------------------------------------
  Stress axis :                     x             y             z
-------------------------------------------------------------------------------
  Youngs Moduli (GPa)     =      36.11042      36.11042       1.36612
-------------------------------------------------------------------------------
  Poissons Ratio (x)      =                     0.62276       0.00071
  Poissons Ratio (y)      =       0.62276                     0.00071
  Poissons Ratio (z)      =       0.01868       0.01868
-------------------------------------------------------------------------------


  Piezoelectric Strain Matrix: (Units=C/m**2)

-------------------------------------------------------------------------------
  Indices      1         2         3         4         5         6    
-------------------------------------------------------------------------------
       x    -0.00000  -0.00000  -0.00000  -0.00000  -0.00000  -0.00000
       y     0.00000  -0.00000   0.00000   0.00000   0.00000  -0.00000
       z    -0.00000   0.00000  -0.00000   0.00000  -0.00000  -0.00000
-------------------------------------------------------------------------------


  Piezoelectric Stress Matrix: (Units=10**-11 C/N)

-------------------------------------------------------------------------------
  Indices      1         2         3         4         5         6    
-------------------------------------------------------------------------------
       x    -0.00000  -0.00000  -0.00000  -0.00000  -0.00000  -0.00000
       y     0.00000  -0.00000   0.00000   0.00000   0.00000  -0.00000
       z    -0.00000   0.00000  -0.00000   0.00000  -0.00000  -0.00000
-------------------------------------------------------------------------------


  Static dielectric constant tensor : 

-------------------------------------------------------------------------------
              x         y         z
-------------------------------------------------------------------------------
       x     2.69429  -0.00000   0.00000
       y    -0.00000   2.69429   0.00000
       z     0.00000   0.00000   2.22327
--------------------------------------------------------------------------------

  High frequency dielectric constant tensor : 

-------------------------------------------------------------------------------
              x         y         z
-------------------------------------------------------------------------------
       x     2.11991  -0.00000   0.00000
       y    -0.00000   2.11991   0.00000
       z     0.00000   0.00000   1.97865
-------------------------------------------------------------------------------

  Static refractive indices : 

-------------------------------------------------------------------------------
    1 =    1.49106      2 =    1.64143      3 =    1.64143
-------------------------------------------------------------------------------

  High frequency refractive indices : 

-------------------------------------------------------------------------------
    1 =    1.40664      2 =    1.45599      3 =    1.45599
-------------------------------------------------------------------------------


  Time to end of optimisation =       1.2060 seconds

********************************************************************************
*  Defect calculation for configuration   1 :                                  *
********************************************************************************



!!!!!!!!!!!!!!!!!!!!!!!!!!!!!!!!!!!!!!!!!!!!!!!!!!!!!!!!!!!!!!!!!!!!!!!!!!!!!!!!
!! WARNING : Ambiguous vacancy specifier used
!!!!!!!!!!!!!!!!!!!!!!!!!!!!!!!!!!!!!!!!!!!!!!!!!!!!!!!!!!!!!!!!!!!!!!!!!!!!!!!!



!!!!!!!!!!!!!!!!!!!!!!!!!!!!!!!!!!!!!!!!!!!!!!!!!!!!!!!!!!!!!!!!!!!!!!!!!!!!!!!!
!! WARNING : Ambiguous vacancy specifier used
!!!!!!!!!!!!!!!!!!!!!!!!!!!!!!!!!!!!!!!!!!!!!!!!!!!!!!!!!!!!!!!!!!!!!!!!!!!!!!!!

  Total number of defects =      2

  Total charge on defect  =   1.00

  Defect centre is at   0.0737   0.4439   0.7053  Frac

  Region 1 radius =  19.0000      Number of ions =   1816

  Region 2 radius =  24.0000      Number of ions =   1847

  Region 2a mode = 4 : screened electrostatics due to region 1 
                       neglect correction to region 1 forces from 2a
                       region 2a displacements based on defects only

  Region 2a ions will only interact with defects in region 1

  Vacancies:

--------------------------------------------------------------------------------
    Specification type     Symbol/Number         x          y          z
--------------------------------------------------------------------------------
    Atom                    Cl    core
    Atom                    Cl    shel
--------------------------------------------------------------------------------


  Components of defect energy : 

--------------------------------------------------------------------------------
  Region 1 - region 1                   =     27.11118354 eV
  Region 1 - region 2a (unrelaxed)      =    -16.82707867 eV
  Region 1 - 2a (relaxed - correction)  =     -0.09185872 eV
  Region 1 (Total)                      =     10.19224614 eV
  Region 2a                             =      0.04593210 eV
  Region 2b                             =     -0.18225327 eV
--------------------------------------------------------------------------------
  Total defect energy                   =     10.05592497 eV
--------------------------------------------------------------------------------

  Largest displacement in region 2 =   0.0047 Angstroms


  Number of variables =     5448

  Maximum number of calculations  =        1000
  Maximum Hessian update interval =          10
  Maximum step size               =   1.0000000
  Maximum parameter tolerance     =   0.0000100
  Maximum function  tolerance     =   0.0000100
  Maximum gradient  tolerance     =   0.0010000

  Symmetry adapted optimisation

  Newton-Raphson optimiser to be used

  BFGS hessian update to be used

  Lower half triangular hessian to be used

  Start of defect optimisation :

  Cycle:      0 Defect Energy:  10.055925  Gnorm:     0.003349  CPU:   42.631
  ** Hessian calculated **
  Cycle:      1 Defect Energy:   9.056022  Gnorm:     0.002752  CPU:  247.504
  Cycle:      2 Defect Energy:   7.864803  Gnorm:     0.001812  CPU:  288.535
  Cycle:      3 Defect Energy:   6.906108  Gnorm:     0.000452  CPU:  316.597
  Cycle:      4 Defect Energy:   6.839300  Gnorm:     0.000305  CPU:  323.130
  Cycle:      5 Defect Energy:   6.791119  Gnorm:     0.000203  CPU:  329.182
  Cycle:      6 Defect Energy:   6.768353  Gnorm:     0.000150  CPU:  335.531
  Cycle:      7 Defect Energy:   6.766377  Gnorm:     0.000135  CPU:  341.968
  ** Hessian calculated **
  Cycle:      8 Defect Energy:   6.743738  Gnorm:     0.000094  CPU:  448.697
  Cycle:      9 Defect Energy:   6.732427  Gnorm:     0.000066  CPU:  453.577
  Cycle:     10 Defect Energy:   6.726525  Gnorm:     0.000046  CPU:  459.640
  Cycle:     11 Defect Energy:   6.723471  Gnorm:     0.000032  CPU:  464.987
  Cycle:     12 Defect Energy:   6.721837  Gnorm:     0.000023  CPU:  470.232
  Cycle:     13 Defect Energy:   6.721012  Gnorm:     0.000016  CPU:  478.160
  Cycle:     14 Defect Energy:   6.720575  Gnorm:     0.000011  CPU:  483.643
  Cycle:     15 Defect Energy:   6.720354  Gnorm:     0.000008  CPU:  488.935
  Cycle:     16 Defect Energy:   6.720246  Gnorm:     0.000006  CPU:  493.785
  Cycle:     17 Defect Energy:   6.720189  Gnorm:     0.000004  CPU:  498.592
  ** Hessian calculated **
  Cycle:     18 Defect Energy:   6.720161  Gnorm:     0.000003  CPU:  581.432
  Cycle:     19 Defect Energy:   6.720148  Gnorm:     0.000002  CPU:  586.315


  **** Optimisation achieved ****


  Final defect energy  =        6.72014115
  Final defect Gnorm   =        0.00000133

  Components of defect energy : 

--------------------------------------------------------------------------------
  Region 1 - region 1                   =     24.04802676 eV
  Region 1 - region 2a (unrelaxed)      =    -17.10502398 eV
  Region 1 - 2a (relaxed - correction)  =     -0.08089511 eV
  Region 1 (Total)                      =      6.86210768 eV
  Region 2a                             =      0.04043601 eV
  Region 2b                             =     -0.18240254 eV
--------------------------------------------------------------------------------
  Total defect energy                   =      6.72014115 eV
--------------------------------------------------------------------------------

  Largest displacement in region 2 =   0.0047 Angstroms

  Final coordinates of region 1 :

--------------------------------------------------------------------------------
   No.  Atomic        x           y           z          Radius      Charge
        Label       (Angs)      (Angs)      (Angs)       (Angs)       (e) 
--------------------------------------------------------------------------------
     1  Sc    c    -3.498302   -2.004864    6.158658    0.000000    3.000000
     2  Sc    c     0.338927    0.208367    6.161767    0.000000    3.000000
     3  Cl    c    -1.818915   -0.482312    5.283937    0.000000    1.485000
     4  Cl    c    -4.347421   -0.261236    7.713085    0.000000    1.485000
     5  Cl    c    -0.746530    1.816371    7.715371    0.000000    1.485000
     6  Cl    c    -3.800926   -3.676308    7.963600    0.000000    1.485000
     7  Cl    c     1.938741   -0.364398    7.965976    0.000000    1.485000
     8  Cl    c    -2.371253   -3.772779    4.831885    0.000000    1.485000
     9  Cl    c     1.305698   -1.652016    4.834916    0.000000    1.485000
    10  Cl    c    -1.062004   -5.636987    7.875170    0.000000    1.485000
    11  Cl    c     2.266562   -3.717480    7.876124    0.000000    1.485000
    12  Cl    c    -1.993277    0.175989   11.387361    0.000000    1.485000
    13  Cl    c     0.831361   -1.817447   11.381356    0.000000    1.485000
    14  Cl    c    -2.001003   -3.808919   11.396093    0.000000    1.485000
    15  Sc    c    -3.108240   -5.583664    6.443396    0.000000    3.000000
    16  Sc    c     3.243608   -1.918031    6.445337    0.000000    3.000000
    17  Cl    c    -5.422895   -1.567314    4.668269    0.000000    1.485000
    18  Cl    c     0.923415    2.093242    4.670575    0.000000    1.485000
    19  Cl    c     1.154093    1.635338   11.384598    0.000000    1.485000
    20  Sc    c     0.002724    0.001834   12.897108    0.000000    3.000000
    21  Cl    c     1.178460   -5.675547    4.915671    0.000000    1.485000
    22  Sc    c     0.001318   -3.638442   12.895471    0.000000    3.000000
    23  Cl    c    -5.444294   -1.820125   11.388736    0.000000    1.485000
    24  Sc    c    -6.436621    0.068231    6.320712    0.000000    3.000000
    25  Sc    c     0.012925    3.789702    6.321966    0.000000    3.000000
    26  Cl    c     1.151683   -5.274327   11.387110    0.000000    1.485000
    27  Sc    c     0.053958   -7.348149    6.407580    0.000000    3.000000
    28  Sc    c     3.189720   -5.538651    6.406902    0.000000    3.000000
    29  Cl    c    -5.486004    1.869525    4.874082    0.000000    1.485000
    30  Cl    c    -2.021670    3.867363    4.874344    0.000000    1.485000
    31  Cl    c    -5.140286    1.631500   11.373107    0.000000    1.485000
    32  Cl    c    -4.285854    3.790785    7.862319    0.000000    1.485000
    33  Cl    c    -7.440751   -1.659197    7.823058    0.000000    1.485000
    34  Cl    c    -1.961415   -7.189477    4.917691    0.000000    1.485000
    35  Cl    c     4.060111   -3.713157    4.918128    0.000000    1.485000
    36  Cl    c     2.011676    3.797338    7.823294    0.000000    1.485000
    37  Cl    c    -4.298159   -7.141027    7.986455    0.000000    1.485000
    38  Cl    c     5.188491   -1.665578    7.986716    0.000000    1.485000
    39  Cl    c     2.037304   -7.162846    7.921830    0.000000    1.485000
    40  Cl    c    -5.167656   -5.600076    5.023814    0.000000    1.485000
    41  Cl    c     4.286046   -0.142979    5.024320    0.000000    1.485000
    42  Sc    c    -3.151316    1.822476   12.885961    0.000000    3.000000
    43  Cl    c    -1.155347   -1.989503    1.464345    0.000000    1.485000
    44  Cl    c    -2.297179    3.636502   11.384291    0.000000    1.485000
    45  Cl    c    -5.140126   -5.272207   11.384373    0.000000    1.485000
    46  Cl    c    -0.866733   -1.817687   14.379326    0.000000    1.485000
    47  Sc    c    -3.150986   -5.457112   12.898820    0.000000    3.000000
    48  Cl    c     4.298636    0.165849   11.395389    0.000000    1.485000
    49  Cl    c    -2.295323   -7.269766   11.396662    0.000000    1.485000
    50  Cl    c     4.295970   -3.799200   11.395367    0.000000    1.485000
    51  Cl    c    -7.139344    1.855940    7.911693    0.000000    1.485000
    52  Cl    c    -1.184057    5.293556    7.911520    0.000000    1.485000
    53  Cl    c    -3.981142   -0.003622    1.470715    0.000000    1.485000
    54  Cl    c    -1.146097    1.660131   14.376601    0.000000    1.485000
    55  Cl    c    -1.144089    1.984098    1.460079    0.000000    1.485000
    56  Cl    c    -4.291799   -3.453759    1.469129    0.000000    1.485000
    57  Sc    c    -6.298216    0.000341   12.886907    0.000000    3.000000
    58  Cl    c     1.989670   -3.447528    1.487786    0.000000    1.485000
    59  Cl    c    -7.449014   -5.591589    7.955110    0.000000    1.485000
    60  Cl    c    -4.284196    0.154179   14.369213    0.000000    1.485000
    61  Cl    c     5.420482    1.837263    7.955063    0.000000    1.485000
    62  Cl    c     2.289577    0.003573    1.468952    0.000000    1.485000
    63  Sc    c    -6.299046   -3.637036   12.891627    0.000000    3.000000
    64  Sc    c     3.153909    1.818989   12.890302    0.000000    3.000000
    65  Cl    c     2.011624    0.158280   14.379461    0.000000    1.485000
    66  Cl    c    -0.853863   -5.447747    1.476898    0.000000    1.485000
    67  Cl    c    -0.849179   -9.124996    7.916502    0.000000    1.485000
    68  Cl    c     5.179323   -5.644469    7.916962    0.000000    1.485000
    69  Cl    c    -1.143971   -5.289356   14.386779    0.000000    1.485000
    70  Sc    c    -6.319476    3.687125    6.401077    0.000000    3.000000
    71  Sc    c    -3.179161    5.499159    6.399945    0.000000    3.000000
    72  Cl    c    -4.288218   -3.787677   14.378263    0.000000    1.485000
    73  Cl    c     2.011850   -3.786281   14.377258    0.000000    1.485000
    74  Sc    c     3.152285   -5.452462   12.891511    0.000000    3.000000
    75  Sc    c    -6.319198   -7.283494    6.495974    0.000000    3.000000
    76  Sc    c     6.320700    0.013568    6.494939    0.000000    3.000000
    77  Cl    c    -8.471149   -0.128199    4.891728    0.000000    1.485000
    78  Cl    c     1.199438    5.452434    4.891059    0.000000    1.485000
    79  Sc    c    -3.149118   -1.818137   -0.048795    0.000000    3.000000
    80  Cl    c    -8.295615    0.173385   11.385711    0.000000    1.485000
    81  Cl    c     3.994935    3.635127   11.384332    0.000000    1.485000
    82  Cl    c    -8.612161   -3.648263    4.942161    0.000000    1.485000
    83  Sc    c     0.004025   -3.639412   -0.029411    0.000000    3.000000
    84  Cl    c     4.319608    3.816270    4.941924    0.000000    1.485000
    85  Cl    c    -8.297486   -3.808304   11.392107    0.000000    1.485000
    86  Cl    c     0.891232   -9.172516    4.921434    0.000000    1.485000
    87  Cl    c     4.351709   -7.176349    4.921853    0.000000    1.485000
    88  Cl    c     1.146252    5.618072   11.390455    0.000000    1.485000
    89  Sc    c    -9.516295   -1.834551    6.413710    0.000000    3.000000
    90  Sc    c     3.200200    5.506614    6.412247    0.000000    3.000000
    91  Cl    c     3.997937   -7.268755   11.388879    0.000000    1.485000
    92  Cl    c    -5.169428    5.320297    4.892422    0.000000    1.485000
    93  Cl    c     1.143017   -9.249604   11.398028    0.000000    1.485000
    94  Cl    c    -4.293201    3.455044    1.478673    0.000000    1.485000
    95  Cl    c     1.992642    3.455436    1.479887    0.000000    1.485000
    96  Sc    c    -3.148796    1.821804   -0.036487    0.000000    3.000000
    97  Cl    c    -4.016733    3.637721   14.374222    0.000000    1.485000
    98  Cl    c    -7.154173   -1.815895   14.381902    0.000000    1.485000
    99  Sc    c    -3.149707    5.457984   12.885604    0.000000    3.000000
   100  Cl    c    -7.435934   -1.979975    1.473508    0.000000    1.485000
   101  Cl    c    -5.151953    5.621822   11.389232    0.000000    1.485000
   102  Cl    c     5.141925   -1.986075    1.486940    0.000000    1.485000
   103  Sc    c     3.151542   -1.817338   -0.023845    0.000000    3.000000
   104  Cl    c     7.145394   -1.816361   11.390664    0.000000    1.485000
   105  Cl    c     2.273722    3.632693   14.373957    0.000000    1.485000
   106  Cl    c    -4.015016   -7.272692   14.387491    0.000000    1.485000
   107  Cl    c    -5.425594   -9.076279    4.996119    0.000000    1.485000
   108  Cl    c     7.427112   -1.657025    4.995997    0.000000    1.485000
   109  Sc    c     6.301583   -0.000389   12.897245    0.000000    3.000000
   110  Cl    c    -4.288607   -7.428581    1.486432    0.000000    1.485000
   111  Cl    c     2.002781   -7.431165    1.485869    0.000000    1.485000
   112  Sc    c    -3.149100   -9.091932   12.895937    0.000000    3.000000
   113  Sc    c     6.300119   -3.634485   12.894666    0.000000    3.000000
   114  Sc    c    -9.459919   -5.462261    6.456307    0.000000    3.000000
   115  Sc    c     6.313792    3.644143    6.457091    0.000000    3.000000
   116  Cl    c     5.424838   -1.817533   14.381519    0.000000    1.485000
   117  Cl    c     2.276071   -7.265124   14.378941    0.000000    1.485000
   118  Cl    c    -5.153276   -9.252106   11.401777    0.000000    1.485000
   119  Cl    c    -7.452327    5.318036    7.918442    0.000000    1.485000
   120  Cl    c    -4.025189    7.294876    7.918397    0.000000    1.485000
   121  Cl    c   -10.301718   -3.640364    7.956122    0.000000    1.485000
   122  Cl    c     5.156174    5.284677    7.955661    0.000000    1.485000
   123  Cl    c    -8.337313    3.817902    4.930521    0.000000    1.485000
   124  Cl    c    -2.283597    7.312901    4.930487    0.000000    1.485000
   125  Cl    c    -1.996144    7.095153   11.380647    0.000000    1.485000
   126  Sc    c     0.006922  -10.966902    6.439263    0.000000    3.000000
   127  Cl    c    -8.290115   -7.100813    4.965406    0.000000    1.485000
   128  Sc    c     6.347374   -7.306762    6.440533    0.000000    3.000000
   129  Cl    c     7.147670    1.812451    4.965141    0.000000    1.485000
   130  Cl    c   -10.606437   -0.168354    7.928734    0.000000    1.485000
   131  Cl    c     2.301988    7.283122    7.927980    0.000000    1.485000
   132  Cl    c    -0.855339    5.445847    1.474309    0.000000    1.485000
   133  Sc    c     0.003619    3.640802   -0.034798    0.000000    3.000000
   134  Cl    c    -7.135429   -5.446210    1.493140    0.000000    1.485000
   135  Cl    c    -7.161070   -9.106119    7.984868    0.000000    1.485000
   136  Cl    c     8.319594   -0.168036    7.984622    0.000000    1.485000
   137  Cl    c    -2.284798    0.005246   -1.528666    0.000000    1.485000
   138  Cl    c    -1.997560   -3.477005   -1.525391    0.000000    1.485000
   139  Cl    c    -7.430775    1.663727   14.374236    0.000000    1.485000
   140  Sc    c    -6.301023   -3.636826   -0.024546    0.000000    3.000000
   141  Sc    c     3.152776    1.821829   -0.027880    0.000000    3.000000
   142  Cl    c     5.152874    1.654526   14.386824    0.000000    1.485000
   143  Cl    c    -7.435080    1.978661    1.478263    0.000000    1.485000
   144  Cl    c     1.142357   -1.974436   -1.512325    0.000000    1.485000
   145  Sc    c     3.148262    5.453925   12.889909    0.000000    3.000000
   146  Cl    c     5.143773    1.986108    1.482222    0.000000    1.485000
   147  Cl    c    -1.148496   -8.906949    1.497946    0.000000    1.485000
   148  Cl    c    -1.139809    5.603988   14.371888    0.000000    1.485000
   149  Cl    c    -8.585359    3.637982   11.393809    0.000000    1.485000
   150  Cl    c    -7.433719   -5.295301   14.383126    0.000000    1.485000
   151  Sc    c     0.003005   -7.275338   -0.014507    0.000000    3.000000
   152  Cl    c     5.151471   -5.285292   14.388291    0.000000    1.485000
   153  Cl    c    -1.997997  -10.731409   11.392463    0.000000    1.485000
   154  Cl    c     7.442765    1.651815   11.400329    0.000000    1.485000
   155  Cl    c    -2.005254  -11.090469    4.954355    0.000000    1.485000
   156  Cl    c     7.459476   -5.626313    4.954369    0.000000    1.485000
   157  Cl    c    -4.282736  -11.070744    7.950751    0.000000    1.485000
   158  Cl    c     8.582132   -3.644285    7.950471    0.000000    1.485000
   159  Cl    c     5.432223   -5.450947    1.487758    0.000000    1.485000
   160  Cl    c     2.008242  -11.088603    7.938289    0.000000    1.485000
   161  Cl    c     5.452128   -9.101668    7.938428    0.000000    1.485000
   162  Cl    c    -8.584610   -7.271481   11.401160    0.000000    1.485000
   163  Sc    c     3.147897   -9.086739   12.893089    0.000000    3.000000
   164  Cl    c     7.443596   -5.285804   11.399147    0.000000    1.485000
   165  Cl    c    -1.139978   -9.239208   14.383277    0.000000    1.485000
   166  Cl    c    -2.291553    0.000512   17.859568    0.000000    1.485000
   167  Cl    c    -1.999840   -3.465284   17.859354    0.000000    1.485000
   168  Cl    c    -5.162489   -1.982418   -1.523549    0.000000    1.485000
   169  Cl    c     1.145127   -1.984122   17.860187    0.000000    1.485000
   170  Sc    c    -9.444660    1.820697   12.889393    0.000000    3.000000
   171  Sc    c     0.000150    7.270927   12.887479    0.000000    3.000000
   172  Cl    c     1.145155    1.977320   -1.518138    0.000000    1.485000
   173  Cl    c     0.869936   -5.460430   -1.510012    0.000000    1.485000
   174  Sc    c    -9.446000   -5.455312   12.896472    0.000000    3.000000
   175  Sc    c     0.000754  -10.903655   12.896182    0.000000    3.000000
   176  Cl    c   -11.535182   -1.670470    4.950264    0.000000    1.485000
   177  Cl    c     4.067377    7.337790    4.949662    0.000000    1.485000
   178  Sc    c    -6.297372  -10.912346    6.470502    0.000000    3.000000
   179  Sc    c     9.452502   -1.819648    6.471313    0.000000    3.000000
   180  Cl    c    -2.002353    3.475116   -1.524406    0.000000    1.485000
   181  Cl    c    -5.148267   -1.985117   17.859560    0.000000    1.485000
   182  Sc    c    -6.298948    3.636556   -0.018307    0.000000    3.000000
   183  Cl    c    -5.162218    1.975971   -1.513648    0.000000    1.485000
   184  Cl    c     4.009982   -0.000056   -1.515801    0.000000    1.485000
   185  Cl    c     1.145995    1.983721   17.859649    0.000000    1.485000
   186  Cl    c   -10.586727    3.800801    7.931904    0.000000    1.485000
   187  Cl    c    -1.143747    9.252275    7.931433    0.000000    1.485000
   188  Cl    c     0.855015   -5.450120   17.859522    0.000000    1.485000
   189  Cl    c     4.297003    7.100434   11.392881    0.000000    1.485000
   190  Cl    c   -10.591146   -7.116452    7.953653    0.000000    1.485000
   191  Cl    c     8.312699    3.797355    7.953279    0.000000    1.485000
   192  Cl    c    -1.156174  -12.584524    7.952321    0.000000    1.485000
   193  Cl    c     8.330675   -7.107743    7.952269    0.000000    1.485000
   194  Sc    c    -6.294907   -7.271659   -0.007900    0.000000    3.000000
   195  Sc    c    -9.473870    5.473814    6.437167    0.000000    3.000000
   196  Sc    c    -3.149875    9.124329    6.437980    0.000000    3.000000
   197  Cl    c    -5.426466   -5.456673   -1.503590    0.000000    1.485000
   198  Cl    c     4.292194   -3.481843   -1.503173    0.000000    1.485000
   199  Sc    c    -3.146533   -9.088667   -0.005736    0.000000    3.000000
   200  Sc    c     6.298535   -3.636845   -0.007496    0.000000    3.000000
   201  Cl    c    -2.007654   -7.428575   -1.498957    0.000000    1.485000
   202  Cl    c   -11.729720   -1.817070   11.401930    0.000000    1.485000
   203  Cl    c     4.295588  -10.735268   11.397638    0.000000    1.485000
   204  Cl    c    -2.000605    3.464940   17.857633    0.000000    1.485000
   205  Cl    c    -7.142419    5.447820    1.491550    0.000000    1.485000
   206  Cl    c   -10.286784   -0.001082    1.493894    0.000000    1.485000
   207  Cl    c     4.299929  -11.082437    4.964071    0.000000    1.485000
   208  Cl    c    -5.147807    1.984075   17.859270    0.000000    1.485000
   209  Cl    c    -4.290489    7.108270   14.381809    0.000000    1.485000
   210  Cl    c     1.999681    7.100561   14.386055    0.000000    1.485000
   211  Cl    c   -11.445205    1.646193   11.392879    0.000000    1.485000
   212  Cl    c     4.000950    0.000890   17.857303    0.000000    1.485000
   213  Sc    c    -3.158943  -12.737750    6.452481    0.000000    3.000000
   214  Sc    c     9.463798   -5.450280    6.451178    0.000000    3.000000
   215  Cl    c   -11.458752   -5.624645    4.960890    0.000000    1.485000
   216  Cl    c     7.453007    5.293566    4.960450    0.000000    1.485000
   217  Sc    c    -6.297657    7.273367   12.890174    0.000000    3.000000
   218  Sc    c    -9.448412   -1.816485   -0.015798    0.000000    3.000000
   219  Cl    c     0.856514    9.089171   11.393617    0.000000    1.485000
   220  Cl    c   -11.444374   -5.281430   11.396599    0.000000    1.485000
   221  Cl    c   -11.747702    1.815841    4.962728    0.000000    1.485000
   222  Cl    c     1.155357    9.264278    4.961986    0.000000    1.485000
   223  Cl    c    -5.436829   -5.450366   17.861613    0.000000    1.485000
   224  Cl    c     4.293127   -3.466674   17.859543    0.000000    1.485000
   225  Cl    c    -4.287698    7.428280    1.485223    0.000000    1.485000
   226  Cl    c     2.003163    7.428465    1.483715    0.000000    1.485000
   227  Cl    c   -10.581957   -3.468644    1.486879    0.000000    1.485000
   228  Cl    c     1.163051  -12.612181    4.951802    0.000000    1.485000
   229  Cl    c     7.193980   -9.129746    4.951783    0.000000    1.485000
   230  Cl    c    -7.439489   -8.912548    1.498267    0.000000    1.485000
   231  Cl    c     8.291600   -3.461203    1.498675    0.000000    1.485000
   232  Cl    c    -2.002673   -7.433414   17.862214    0.000000    1.485000
   233  Cl    c     5.146570   -8.911791    1.499751    0.000000    1.485000
   234  Cl    c    -7.430423    5.607494   14.379187    0.000000    1.485000
   235  Cl    c   -10.574757    0.157859   14.381785    0.000000    1.485000
   236  Cl    c     5.431767    5.449692    1.486483    0.000000    1.485000
   237  Cl    c     5.152044    5.605186   14.382663    0.000000    1.485000
   238  Cl    c    -4.001450  -10.900437    1.496665    0.000000    1.485000
   239  Cl    c     8.302351    0.161459   14.391950    0.000000    1.485000
   240  Sc    c   -12.632234    0.010332    6.457060    0.000000    3.000000
   241  Cl    c    -4.291638  -10.740489   14.393290    0.000000    1.485000
   242  Sc    c     3.160464    9.127592    6.457471    0.000000    3.000000
   243  Sc    c    -3.147135   -1.816808   19.358478    0.000000    3.000000
   244  Cl    c     2.001778  -10.732250   14.392981    0.000000    1.485000
   245  Cl    c   -10.577903   -3.790538   14.385523    0.000000    1.485000
   246  Sc    c     3.151418   -9.089970   -0.004936    0.000000    3.000000
   247  Cl    c     8.300878   -3.792713   14.390233    0.000000    1.485000
   248  Sc    c     0.000714   -3.634051   19.360041    0.000000    3.000000
   249  Sc    c    -6.297712  -10.905952   12.900489    0.000000    3.000000
   250  Cl    c     8.578399    0.000124    1.491327    0.000000    1.485000
   251  Cl    c     7.440567    5.613884   11.402735    0.000000    1.485000
   252  Cl    c     2.287265  -10.901752    1.492864    0.000000    1.485000
   253  Cl    c    -8.297118    7.099258   11.390558    0.000000    1.485000
   254  Cl    c     0.858211  -12.719518   11.399833    0.000000    1.485000
   255  Cl    c    -7.434532   -9.241777   14.388597    0.000000    1.485000
   256  Cl    c     5.151564   -9.238369   14.386659    0.000000    1.485000
   257  Cl    c     0.867723    5.463234   -1.514845    0.000000    1.485000
   258  Cl    c    -8.307169   -3.472230   -1.510780    0.000000    1.485000
   259  Sc    c    -9.445861    1.817341   -0.012075    0.000000    3.000000
   260  Cl    c    -8.594952    7.281249    4.944333    0.000000    1.485000
   261  Cl    c    -5.154017    9.266509    4.944185    0.000000    1.485000
   262  Sc    c     0.001350    7.275285   -0.014273    0.000000    3.000000
   263  Sc    c    -9.443316    5.454639   12.894751    0.000000    3.000000
   264  Sc    c     3.165703  -12.746818    6.455296    0.000000    3.000000
   265  Sc    c     6.309224  -10.932266    6.454135    0.000000    3.000000
   266  Cl    c     4.296635    3.481770   -1.509668    0.000000    1.485000
   267  Cl    c    -5.156491  -12.544549    4.952926    0.000000    1.485000
   268  Cl    c    10.295267   -3.623058    4.952580    0.000000    1.485000
   269  Cl    c     7.438387   -9.247291   11.405075    0.000000    1.485000
   270  Cl    c    -5.436592    9.090671   11.397226    0.000000    1.485000
   271  Sc    c     6.300273    3.638335   -0.010367    0.000000    3.000000
   272  Cl    c    -8.577901    0.000663   -1.503896    0.000000    1.485000
   273  Cl    c    -8.295528  -10.733584   11.398137    0.000000    1.485000
   274  Cl    c     1.147766   -8.930226   -1.502223    0.000000    1.485000
   275  Sc    c    -3.147031    1.817938   19.358932    0.000000    3.000000
   276  Cl    c    -8.302066  -11.052737    4.977893    0.000000    1.485000
   277  Cl    c    10.575559   -0.154163    4.977451    0.000000    1.485000
   278  Sc    c    -9.444227   -9.089116   12.899898    0.000000    3.000000
   279  Sc    c     9.447096    1.818434   12.899361    0.000000    3.000000
   280  Sc    c     6.296862   -7.270987   -0.005348    0.000000    3.000000
   281  Sc    c     3.148293   -1.816429   19.357559    0.000000    3.000000
   282  Cl    c     4.288191   -7.427952   -1.495297    0.000000    1.485000
   283  Cl    c    -1.148664    8.910400    1.494643    0.000000    1.485000
   284  Sc    c     9.446199   -5.451938   12.900289    0.000000    3.000000
   285  Cl    c   -10.296956    3.634407   14.389870    0.000000    1.485000
   286  Cl    c     0.856055    5.451879   17.858551    0.000000    1.485000
   287  Cl    c    10.587993    0.162863   11.405580    0.000000    1.485000
   288  Cl    c    -5.435762  -12.720172   11.404297    0.000000    1.485000
   289  Cl    c    -8.294498   -3.465754   17.859130    0.000000    1.485000
   290  Cl    c     4.292593    3.467313   17.858773    0.000000    1.485000
   291  Cl    c    10.586770   -3.796508   11.405594    0.000000    1.485000
   292  Cl    c   -10.583217    3.466956    1.490030    0.000000    1.485000
   293  Cl    c    -5.427361    5.454249   -1.502347    0.000000    1.485000
   294  Cl    c     8.291761    3.462286    1.498182    0.000000    1.485000
   295  Cl    c    -8.583254    0.000727   17.860636    0.000000    1.485000
   296  Cl    c    -0.868222    9.081226   14.382518    0.000000    1.485000
   297  Cl    c    -5.148940   -8.922879   -1.500937    0.000000    1.485000
   298  Cl    c    -7.436643    9.248278    7.929810    0.000000    1.485000
   299  Cl    c   -10.300226   -7.269547   14.395032    0.000000    1.485000
   300  Cl    c   -13.750936   -1.649476    7.960489    0.000000    1.485000
   301  Cl    c     1.146584   -8.917055   17.859583    0.000000    1.485000
   302  Cl    c     5.157990    9.267074    7.959749    0.000000    1.485000
   303  Sc    c   -12.589761    0.000059   12.898732    0.000000    3.000000
   304  Cl    c    -7.442113  -12.563851    7.961997    0.000000    1.485000
   305  Cl    c    11.455895   -1.653578    7.961580    0.000000    1.485000
   306  Cl    c     5.158116  -12.567405    7.961888    0.000000    1.485000
   307  Sc    c   -12.590385   -3.633765   12.899122    0.000000    3.000000
   308  Sc    c     6.296975    7.268713   12.896731    0.000000    3.000000
   309  Sc    c   -12.605993    3.639881    6.453394    0.000000    3.000000
   310  Sc    c     0.004313   10.920101    6.451612    0.000000    3.000000
   311  Sc    c     0.000625    3.635151   19.357060    0.000000    3.000000
   312  Sc    c    -6.294780   -3.633984   19.359750    0.000000    3.000000
   313  Sc    c     3.148310    1.817975   19.358275    0.000000    3.000000
   314  Cl    c   -11.473042    5.288678    4.943396    0.000000    1.485000
   315  Cl    c    -1.990891   10.762650    4.942877    0.000000    1.485000
   316  Cl    c     7.434987   -1.974240   -1.495032    0.000000    1.485000
   317  Cl    c   -10.310439    7.287150    7.944093    0.000000    1.485000
   318  Cl    c    -4.302606   10.755993    7.943797    0.000000    1.485000
   319  Cl    c   -13.452143    1.830779    7.966586    0.000000    1.485000
   320  Cl    c     1.993430   10.748565    7.965824    0.000000    1.485000
   321  Cl    c     4.290989   -7.432340   17.861224    0.000000    1.485000
   322  Cl    c   -10.584577   -7.429523    1.493687    0.000000    1.485000
   323  Cl    c     8.297151   -7.431006    1.493076    0.000000    1.485000
   324  Sc    c   -12.601741   -7.279528    6.460485    0.000000    3.000000
   325  Sc    c     9.458354    5.456705    6.458969    0.000000    3.000000
   326  Sc    c     0.000724   -7.268558   19.358542    0.000000    3.000000
   327  Cl    c    -8.303089    3.469892   -1.508610    0.000000    1.485000
   328  Cl    c     8.573642    3.632328   14.389590    0.000000    1.485000
   329  Cl    c    -0.855927   -1.816805   -4.965106    0.000000    1.485000
   330  Cl    c    -0.865043  -12.716601   14.389905    0.000000    1.485000
   331  Sc    c     6.295976  -10.901929   12.900496    0.000000    3.000000
   332  Sc    c    -6.294552    7.270901   -0.007506    0.000000    3.000000
   333  Cl    c    -1.142878  -12.881742    1.494950    0.000000    1.485000
   334  Cl    c    -5.436266    5.451749   17.860270    0.000000    1.485000
   335  Cl    c    -1.141657   -1.976446   20.850784    0.000000    1.485000
   336  Cl    c    -5.147126   -8.916354   17.860147    0.000000    1.485000
   337  Cl    c     8.574092   -7.265932   14.390865    0.000000    1.485000
   338  Cl    c   -11.447985    5.617233   11.402374    0.000000    1.485000
   339  Cl    c    -2.007136    7.429659   -1.501853    0.000000    1.485000
   340  Cl    c    10.296912    3.635727   11.399449    0.000000    1.485000
   341  Cl    c     7.155383   -5.453671   -1.501402    0.000000    1.485000
   342  Cl    c    -8.303331   -7.426704   -1.493670    0.000000    1.485000
   343  Cl    c     7.438640   -1.981405   17.860651    0.000000    1.485000
   344  Cl    c   -13.732654   -5.616256    7.952605    0.000000    1.485000
   345  Cl    c     8.583240    7.266825    7.952225    0.000000    1.485000
   346  Cl    c    -2.003771   11.068589   11.401764    0.000000    1.485000
   347  Sc    c     9.443651   -1.816450   -0.003046    0.000000    3.000000
   348  Cl    c    -4.023321  -14.551498    7.944238    0.000000    1.485000
   349  Cl    c    11.465980   -5.607866    7.944147    0.000000    1.485000
   350  Cl    c     7.438154    1.975222   -1.496605    0.000000    1.485000
   351  Cl    c    -2.279586  -10.904805   -1.494114    0.000000    1.485000
   352  Cl    c    10.297798   -7.268820   11.401041    0.000000    1.485000
   353  Cl    c    -1.145702    1.648541   -4.963723    0.000000    1.485000
   354  Cl    c   -11.725328   -9.088575    4.966841    0.000000    1.485000
   355  Cl    c    10.587673    3.792766    4.966544    0.000000    1.485000
   356  Cl    c   -11.448042   -9.250940   11.406328    0.000000    1.485000
   357  Cl    c    -8.295281    3.465597   17.857739    0.000000    1.485000
   358  Cl    c    -2.295901  -14.545802    4.951755    0.000000    1.485000
   359  Cl    c    10.598970   -7.102178    4.951741    0.000000    1.485000
   360  Cl    c   -10.586037  -11.064786    7.952969    0.000000    1.485000
   361  Cl    c    11.728524    1.817515    7.952638    0.000000    1.485000
   362  Cl    c    -4.289607    0.165831   -4.963965    0.000000    1.485000
   363  Cl    c     2.001838    0.167325   -4.964267    0.000000    1.485000
   364  Cl    c    -1.145148   -5.280858   -4.961324    0.000000    1.485000
   365  Cl    c     2.292500  -14.552617    7.953274    0.000000    1.485000
   366  Cl    c     8.308872  -11.078304    7.953393    0.000000    1.485000
   367  Cl    c    -4.009707    0.000280   20.851107    0.000000    1.485000
   368  Cl    c    -4.290572   -3.798681   -4.963321    0.000000    1.485000
   369  Cl    c     2.000902   -3.798485   -4.963049    0.000000    1.485000
   370  Sc    c    -3.147652    9.088264   -0.007854    0.000000    3.000000
   371  Cl    c    -1.140407    1.977736   20.849522    0.000000    1.485000
   372  Cl    c    -4.288416   -3.472542   20.851418    0.000000    1.485000
   373  Cl    c     2.006010   -3.471156   20.851724    0.000000    1.485000
   374  Cl    c    -2.001903    7.433151   17.861040    0.000000    1.485000
   375  Cl    c     2.282922    0.000380   20.849345    0.000000    1.485000
   376  Cl    c    -0.863100   -5.451159   20.851420    0.000000    1.485000
   377  Cl    c     7.149350   -5.449605   17.858010    0.000000    1.485000
   378  Sc    c    -0.000130   10.904666   12.897041    0.000000    3.000000
   379  Cl    c    -8.296978   -7.433126   17.862891    0.000000    1.485000
   380  Cl    c    -2.003579  -14.698464   11.405469    0.000000    1.485000
   381  Sc    c    -9.448615    9.101764    6.443371    0.000000    3.000000
   382  Sc    c    -6.304320   10.916720    6.442037    0.000000    3.000000
   383  Sc    c    -6.294730    3.634870   19.356986    0.000000    3.000000
   384  Cl    c     7.439714    1.982996   17.860603    0.000000    1.485000
   385  Sc    c    -9.443515   -9.086514    0.000264    0.000000    3.000000
   386  Sc    c     9.444648    1.817331   -0.002020    0.000000    3.000000
   387  Cl    c    -2.288776  -10.900990   17.862713    0.000000    1.485000
   388  Sc    c     9.443670    5.451657   12.901578    0.000000    3.000000
   389  Sc    c    -3.146667  -12.722212   -0.000385    0.000000    3.000000
   390  Sc    c    -6.294302   -7.268346   19.359314    0.000000    3.000000
   391  Cl    c   -14.636819   -0.156500    4.969640    0.000000    1.485000
   392  Sc    c    -3.146929   -9.085269   19.360645    0.000000    3.000000
   393  Cl    c     4.306528   10.779793    4.968926    0.000000    1.485000
   394  Sc    c     6.295683   -3.633398   19.358319    0.000000    3.000000
   395  Cl    c    -7.438247    8.916185    1.494645    0.000000    1.485000
   396  Cl    c     5.145235    8.912896    1.499365    0.000000    1.485000
   397  Cl    c    -7.155316    9.084846   14.390164    0.000000    1.485000
   398  Sc    c     0.001096  -14.537139   12.899693    0.000000    3.000000
   399  Cl    c   -13.440612   -1.816377   14.398492    0.000000    1.485000
   400  Sc    c     9.442750   -9.085279   12.901635    0.000000    3.000000
   401  Sc    c    -9.444600  -12.722646    6.461133    0.000000    3.000000
   402  Sc    c    12.593674    0.001018    6.459633    0.000000    3.000000
   403  Cl    c   -11.454811   -1.980702   -1.502518    0.000000    1.485000
   404  Sc    c     3.150142    9.088407   -0.006025    0.000000    3.000000
   405  Cl    c   -14.592663    0.165782   11.404246    0.000000    1.485000
   406  Cl    c     7.152590    9.087181   11.402158    0.000000    1.485000
   407  Sc    c   -12.592612   -3.636848   -0.003509    0.000000    3.000000
   408  Sc    c     6.296441    7.271742   -0.003924    0.000000    3.000000
   409  Cl    c   -14.593756   -3.799382   11.405522    0.000000    1.485000
   410  Cl    c   -13.729075   -1.979916    1.492324    0.000000    1.485000
   411  Cl    c     4.289944    7.428309   -1.496624    0.000000    1.485000
   412  Cl    c    11.442144   -1.982954    1.497095    0.000000    1.485000
   413  Sc    c    -9.441996   -1.816468   19.357646    0.000000    3.000000
   414  Cl    c     5.426927    9.080557   14.390462    0.000000    1.485000
   415  Cl    c   -14.875625   -3.632953    4.974253    0.000000    1.485000
   416  Cl    c     7.438182    9.248872    4.973753    0.000000    1.485000
   417  Cl    c    -4.002182    3.631256   -4.961296    0.000000    1.485000
   418  Cl    c     4.011101  -10.906651   -1.497148    0.000000    1.485000
   419  Cl    c    -7.146071   -1.817511   -4.958793    0.000000    1.485000
   420  Cl    c    -7.156590  -12.720298   14.396368    0.000000    1.485000
   421  Cl    c     4.026007  -14.561173    4.961703    0.000000    1.485000
   422  Cl    c     7.451235  -12.584880    4.961797    0.000000    1.485000
   423  Cl    c     4.292700   11.064269   11.406691    0.000000    1.485000
   424  Cl    c    -4.289641    3.473590   20.850652    0.000000    1.485000
   425  Sc    c     3.147284  -12.723119   -0.001378    0.000000    3.000000
   426  Cl    c     2.004513    3.472576   20.851055    0.000000    1.485000
   427  Cl    c     1.147154    8.928648   -1.503812    0.000000    1.485000
   428  Cl    c     2.288299    3.632232   -4.963502    0.000000    1.485000
   429  Cl    c     7.152981  -12.718801   11.404593    0.000000    1.485000
   430  Cl    c    -4.002638   -7.266770   -4.960120    0.000000    1.485000
   431  Cl    c   -11.443679   -1.983701   17.860305    0.000000    1.485000
   432  Cl    c   -13.738681    5.297891    7.947851    0.000000    1.485000
   433  Cl    c    -0.865377   12.728960    7.947426    0.000000    1.485000
   434  Sc    c     3.148285   -9.085090   19.358963    0.000000    3.000000
   435  Cl    c    -4.004569   10.900175    1.493602    0.000000    1.485000
   436  Cl    c   -13.439779   -5.452287    1.500117    0.000000    1.485000
   437  Cl    c   -13.450136   -9.096470    7.958673    0.000000    1.485000
   438  Cl    c    11.455255    5.283421    7.958416    0.000000    1.485000
   439  Cl    c   -11.452044    1.978026   -1.500090    0.000000    1.485000
   440  Cl    c    -7.438443  -12.879620    1.495575    0.000000    1.485000
   441  Cl    c   -10.581372    7.106400   14.392802    0.000000    1.485000
   442  Cl    c     7.158381    5.456733   -1.501463    0.000000    1.485000
   443  Cl    c    -7.435736   -1.975670   20.850232    0.000000    1.485000
   444  Cl    c     5.150128  -12.880596    1.494712    0.000000    1.485000
   445  Cl    c     5.152466   -1.976974   20.850724    0.000000    1.485000
   446  Cl    c     8.294271    7.099825   14.397879    0.000000    1.485000
   447  Sc    c    -6.294258   10.906508   12.899392    0.000000    3.000000
   448  Cl    c    11.722171   -1.816911   14.393927    0.000000    1.485000
   449  Cl    c     5.433761   -1.816815   -4.963063    0.000000    1.485000
   450  Cl    c     2.288358   -7.265943   -4.960087    0.000000    1.485000
   451  Cl    c     5.428530  -12.715560   14.393648    0.000000    1.485000
   452  Cl    c     2.285794   10.899405    1.492810    0.000000    1.485000
   453  Sc    c     0.000985    0.000263   -6.463402    0.000000    3.000000
   454  Cl    c   -10.295993  -10.901979    1.500090    0.000000    1.485000
   455  Cl    c   -13.725936    1.656993   14.393125    0.000000    1.485000
   456  Cl    c     4.292288    7.433593   17.861469    0.000000    1.485000
   457  Sc    c     0.000724   -3.634403   -6.463512    0.000000    3.000000
   458  Cl    c    -4.288145   -7.426407   20.851420    0.000000    1.485000
   459  Cl    c   -10.580512    7.430268    1.492777    0.000000    1.485000
   460  Cl    c   -13.728441    1.979167    1.492635    0.000000    1.485000
   461  Cl    c     2.006194   -7.426905   20.850597    0.000000    1.485000
   462  Sc    c    -9.441953    1.817768   19.358293    0.000000    3.000000
   463  Sc    c     0.000781    7.269323   19.358310    0.000000    3.000000
   464  Cl    c    11.445901    1.653475   14.397927    0.000000    1.485000
   465  Cl    c    -8.301973   10.745378    4.940938    0.000000    1.485000
   466  Cl    c     4.004285  -10.901258   17.860455    0.000000    1.485000
   467  Cl    c     8.297280    7.430775    1.494043    0.000000    1.485000
   468  Cl    c    11.443999    1.983175    1.496791    0.000000    1.485000
   469  Cl    c    -4.286256   11.058551   14.389373    0.000000    1.485000
   470  Cl    c     4.291544  -14.697352   11.408656    0.000000    1.485000
   471  Cl    c    -4.294263  -14.365861    1.501170    0.000000    1.485000
   472  Cl    c     2.005253   11.055736   14.389646    0.000000    1.485000
   473  Cl    c     1.999861  -14.367165    1.500714    0.000000    1.485000
   474  Cl    c   -13.726769   -5.289015   14.395261    0.000000    1.485000
   475  Cl    c   -10.583521  -10.741018   14.397013    0.000000    1.485000
   476  Cl    c   -11.723120   -5.452518   -1.493868    0.000000    1.485000
   477  Sc    c   -15.758329   -1.825403    6.467907    0.000000    3.000000
   478  Sc    c     6.313186   10.917402    6.466216    0.000000    3.000000
   479  Sc    c     6.295484    3.635421   19.356801    0.000000    3.000000
   480  Cl    c    11.445201   -5.285140   14.398682    0.000000    1.485000
   481  Cl    c     8.294673  -10.732354   14.400112    0.000000    1.485000
   482  Cl    c    -5.149759    8.920715   -1.503813    0.000000    1.485000
   483  Cl    c    -7.437019    1.649990   -4.959761    0.000000    1.485000
   484  Cl    c     7.438475   -8.925935   -1.496889    0.000000    1.485000
   485  Cl    c     5.146707    1.649167   -4.960696    0.000000    1.485000
   486  Cl    c     1.146196    8.918017   17.859184    0.000000    1.485000
   487  Sc    c    12.592057   -0.000314   12.903864    0.000000    3.000000
   488  Cl    c    -1.144646    5.613567   -4.961267    0.000000    1.485000
   489  Cl    c    -7.436640   -5.283140   -4.959071    0.000000    1.485000
   490  Cl    c   -11.443231    1.983514   17.860153    0.000000    1.485000
   491  Cl    c    -0.863314    5.450914   20.850039    0.000000    1.485000
   492  Sc    c    -6.294604  -14.538801   12.902016    0.000000    3.000000
   493  Cl    c   -14.609277    3.794781    4.960844    0.000000    1.485000
   494  Sc    c    12.591371   -3.633355   12.902729    0.000000    3.000000
   495  Cl    c     0.871563   12.733550    4.960394    0.000000    1.485000
   496  Cl    c     5.147838   -5.280654   -4.958100    0.000000    1.485000
   497  Cl    c    -7.155547   -5.450812   20.853242    0.000000    1.485000
   498  Sc    c   -12.590821  -10.909963    6.456703    0.000000    3.000000
   499  Cl    c     7.149923    5.452869   17.858779    0.000000    1.485000
   500  Cl    c     1.148186   12.552760   11.400770    0.000000    1.485000
   501  Sc    c    12.596954    3.632050    6.457665    0.000000    3.000000
   502  Cl    c   -14.597654   -7.104846    4.959371    0.000000    1.485000
   503  Sc    c     6.295143   -7.267392   19.357124    0.000000    3.000000
   504  Cl    c    10.305095    7.273450    4.959092    0.000000    1.485000
   505  Cl    c     1.139699  -12.878443   -1.491659    0.000000    1.485000
   506  Cl    c    -7.434653    1.977065   20.849272    0.000000    1.485000
   507  Sc    c   -12.591122    3.635640   -0.003445    0.000000    3.000000
   508  Cl    c     5.153390    1.978728   20.850091    0.000000    1.485000
   509  Cl    c    -8.301248    7.427290   -1.496514    0.000000    1.485000
   510  Cl    c    -1.142021   -8.921295   20.853783    0.000000    1.485000
   511  Sc    c    -3.146869    1.817106   -6.463431    0.000000    3.000000
   512  Cl    c    11.725432   -5.449919    1.492947    0.000000    1.485000
   513  Cl    c    -1.145855  -16.512928    7.943190    0.000000    1.485000
   514  Cl    c    11.726758   -9.081860    7.943270    0.000000    1.485000
   515  Cl    c     8.579052  -10.900574    1.493275    0.000000    1.485000
   516  Cl    c    10.299400    0.000438   -1.499432    0.000000    1.485000
   517  Sc    c    -3.150841  -16.366071    6.448953    0.000000    3.000000
   518  Sc    c    12.602068   -7.271215    6.450167    0.000000    3.000000
   519  Cl    c    -4.287553  -14.691663   14.393329    0.000000    1.485000
   520  Cl    c    -1.144830   -9.246947   -4.960200    0.000000    1.485000
   521  Cl    c     2.005524  -14.690732   14.393554    0.000000    1.485000
   522  Cl    c    -8.298915   11.066762   11.406014    0.000000    1.485000
   523  Sc    c    -3.146723   -5.451667   -6.460087    0.000000    3.000000
   524  Sc    c   -12.590338   -7.270084   -0.001877    0.000000    3.000000
   525  Cl    c   -11.728385   -5.449552   17.863676    0.000000    1.485000
   526  Cl    c    13.444862   -1.816383   11.403279    0.000000    1.485000
   527  Cl    c     5.429761   -5.450189   20.849578    0.000000    1.485000
   528  Cl    c    -5.147938    8.916914   17.859117    0.000000    1.485000
   529  Cl    c    10.586369    7.104098   11.406221    0.000000    1.485000
   530  Cl    c     7.439831   -8.918173   17.860290    0.000000    1.485000
   531  Cl    c   -14.873776    3.633916   11.410642    0.000000    1.485000
   532  Sc    c   -15.741420   -5.455664    6.460569    0.000000    3.000000
   533  Sc    c     9.448674    9.087669    6.461450    0.000000    3.000000
   534  Cl    c    -8.574617  -10.900883   -1.490874    0.000000    1.485000
   535  Cl    c    -5.147383   12.554365   11.400945    0.000000    1.485000
   536  Cl    c    10.582541   -3.474735   -1.493636    0.000000    1.485000
   537  Cl    c     1.148465  -16.185940   11.403639    0.000000    1.485000
   538  Cl    c    -8.575120  -14.532024    4.964115    0.000000    1.485000
   539  Sc    c     0.000065  -14.538600    0.000291    0.000000    3.000000
   540  Sc    c     9.444162   -9.086084   -0.001584    0.000000    3.000000
   541  Cl    c    13.726805   -1.657045    4.963828    0.000000    1.485000
   542  Cl    c    -5.153601  -12.875573   -1.490560    0.000000    1.485000
   543  Cl    c     1.143885  -12.881759   17.864111    0.000000    1.485000
   544  Cl    c   -14.873362   -7.266359   11.411306    0.000000    1.485000
   545  Cl    c    -8.296578    7.432529   17.861915    0.000000    1.485000
   546  Cl    c   -11.453473    9.252380    4.951394    0.000000    1.485000
   547  Cl    c    -5.432575   12.729329    4.951314    0.000000    1.485000
   548  Cl    c    10.586022  -10.738384   11.407586    0.000000    1.485000
   549  Cl    c    10.296855    0.001667   17.858920    0.000000    1.485000
   550  Cl    c   -11.438717  -12.551608    4.955443    0.000000    1.485000
   551  Cl    c    13.442642    1.814401    4.955180    0.000000    1.485000
   552  Cl    c    -8.299373  -14.698752   11.408762    0.000000    1.485000
   553  Sc    c   -12.590815    7.269522   12.903073    0.000000    3.000000
   554  Sc    c    -6.294281   -0.000233   -6.459369    0.000000    3.000000
   555  Sc    c    -3.146659   12.721550   12.900739    0.000000    3.000000
   556  Cl    c     1.143636  -16.516367    4.962867    0.000000    1.485000
   557  Cl    c    10.584124  -11.065892    4.962985    0.000000    1.485000
   558  Sc    c    -6.294084   -3.634335   -6.460389    0.000000    3.000000
   559  Sc    c     3.148277    1.817817   -6.462756    0.000000    3.000000
   560  Sc    c    -6.294146    7.268895   19.358883    0.000000    3.000000
   561  Sc    c     3.149223  -16.372570    6.457104    0.000000    3.000000
   562  Sc    c     6.295887   10.902556   12.903972    0.000000    3.000000
   563  Sc    c     9.457614  -12.730486    6.458380    0.000000    3.000000
   564  Cl    c   -11.727495    9.085722   11.409174    0.000000    1.485000
   565  Sc    c     3.148352   -5.451094   -6.458381    0.000000    3.000000
   566  Cl    c    -5.146884  -16.185359   11.403018    0.000000    1.485000
   567  Cl    c    -8.581244  -10.900120   17.864039    0.000000    1.485000
   568  Cl    c    10.585716   -3.469116   17.862013    0.000000    1.485000
   569  Cl    c    -7.161119   12.727276    7.943031    0.000000    1.485000
   570  Cl    c   -10.589165   10.749382    7.943114    0.000000    1.485000
   571  Sc    c   -12.591534  -10.903981   12.905534    0.000000    3.000000
   572  Cl    c   -13.439170    5.450607    1.500104    0.000000    1.485000
   573  Cl    c    -5.149874  -12.881764   17.864400    0.000000    1.485000
   574  Cl    c   -16.599630   -3.646429    7.966464    0.000000    1.485000
   575  Cl    c     8.310015   10.735910    7.966114    0.000000    1.485000
   576  Cl    c    -1.144340   12.550919   14.397394    0.000000    1.485000
   577  Sc    c     9.442528   -1.815879   19.357465    0.000000    3.000000
   578  Cl    c    13.731840    1.654758   11.408713    0.000000    1.485000
   579  Sc    c    -9.441882    9.087047   -0.003138    0.000000    3.000000
   580  Sc    c    -3.146385  -16.352152   12.903176    0.000000    3.000000
   581  Cl    c    -2.282169   10.905291   -1.496782    0.000000    1.485000
   582  Cl    c    -5.154941  -16.518976    4.954426    0.000000    1.485000
   583  Cl    c    13.735727   -5.612571    4.954333    0.000000    1.485000
   584  Cl    c   -11.443344   -8.920332   -1.497780    0.000000    1.485000
   585  Cl    c   -11.728945  -12.718627   11.409253    0.000000    1.485000
   586  Sc    c     6.295970  -14.535760   12.903999    0.000000    3.000000
   587  Cl    c    13.732589   -5.287985   11.408519    0.000000    1.485000
   588  Cl    c   -16.890967   -0.165569    7.961929    0.000000    1.485000
   589  Cl    c     5.441948   12.727182    7.961554    0.000000    1.485000
   590  Sc    c   -15.736848    1.816822   12.904547    0.000000    3.000000
   591  Sc    c     3.148590   12.718176   12.902222    0.000000    3.000000
   592  Cl    c   -11.721519    5.451389   -1.493421    0.000000    1.485000
   593  Sc    c    -3.146850    9.085446   19.358234    0.000000    3.000000
   594  Cl    c   -10.302806  -14.540041    7.953833    0.000000    1.485000
   595  Cl    c    14.595917   -0.163851    7.953566    0.000000    1.485000
   596  Cl    c    -4.292116    7.099391   -4.957855    0.000000    1.485000
   597  Cl    c    -1.143499   12.881372    1.493445    0.000000    1.485000
   598  Cl    c     1.999466    7.098122   -4.957377    0.000000    1.485000
   599  Cl    c    -2.002515  -14.372124   -1.496658    0.000000    1.485000
   600  Cl    c   -13.731609   -8.922669    1.494615    0.000000    1.485000
   601  Sc    c   -15.737153   -5.450644   12.906344    0.000000    3.000000
   602  Cl    c    10.583308    3.474722   -1.493829    0.000000    1.485000
   603  Cl    c   -13.726771    5.610350   14.397035    0.000000    1.485000
   604  Cl    c    11.443365   -8.915303    1.497770    0.000000    1.485000
   605  Cl    c    11.445836    5.611164   14.396816    0.000000    1.485000
   606  Sc    c    -9.442767  -12.720153   -0.000397    0.000000    3.000000
   607  Cl    c    -7.155663    5.450535   20.851856    0.000000    1.485000
   608  Cl    c   -10.301602    0.000320   20.852565    0.000000    1.485000
   609  Cl    c    -1.143454  -16.184441   14.399160    0.000000    1.485000
   610  Cl    c    -2.004442    0.160904   -7.955739    0.000000    1.485000
   611  Cl    c     0.862709   -1.816938   -7.956390    0.000000    1.485000
   612  Sc    c    -6.295440  -14.535284    0.001179    0.000000    3.000000
   613  Sc    c    12.590391   -3.633586   -0.000701    0.000000    3.000000
   614  Sc    c    -9.441686   -9.084846   19.361380    0.000000    3.000000
   615  Sc    c     9.442370    1.818057   19.359074    0.000000    3.000000
   616  Cl    c    -2.005832   -3.795390   -7.954047    0.000000    1.485000
   617  Cl    c    -7.436630    5.614183   -4.959350    0.000000    1.485000
   618  Cl    c   -10.583350    0.163944   -4.959481    0.000000    1.485000
   619  Cl    c    11.727623    5.449904    1.494260    0.000000    1.485000
   620  Cl    c     5.149115    5.614260   -4.960622    0.000000    1.485000
   621  Cl    c    -2.287346   10.902475   17.863005    0.000000    1.485000
   622  Cl    c     8.295181    0.165539   -4.959257    0.000000    1.485000
   623  Cl    c    -4.291393  -10.733363   -4.957266    0.000000    1.485000
   624  Cl    c    -0.862010  -16.354373    1.494547    0.000000    1.485000
   625  Cl    c     2.000849  -10.732253   -4.955898    0.000000    1.485000
   626  Cl    c   -11.442160   -8.916790   17.862033    0.000000    1.485000
   627  Cl    c   -13.728653   -9.244248   14.398105    0.000000    1.485000
   628  Sc    c    -3.146367  -12.719236   19.360132    0.000000    3.000000
   629  Cl    c   -10.583920   -3.796802   -4.959747    0.000000    1.485000
   630  Cl    c     8.295291   -3.797582   -4.959590    0.000000    1.485000
   631  Cl    c    11.444661   -9.244182   14.397793    0.000000    1.485000
   632  Sc    c    -3.147731    5.451191   -6.458237    0.000000    3.000000
   633  Cl    c    -4.287424    7.426937   20.850193    0.000000    1.485000
   634  Cl    c    10.582053   -7.427345   -1.494546    0.000000    1.485000
   635  Cl    c     2.006545    7.427851   20.850019    0.000000    1.485000
   636  Cl    c   -10.581955   -3.472058   20.851787    0.000000    1.485000
   637  Cl    c    -7.435812   -8.921967   20.854246    0.000000    1.485000
   638  Sc    c     3.148992  -16.351777   12.904803    0.000000    3.000000
   639  Cl    c     8.299013   -3.469947   20.852334    0.000000    1.485000
   640  Cl    c   -11.729816    5.451507   17.863011    0.000000    1.485000
   641  Cl    c    -7.435543  -16.512401    7.945760    0.000000    1.485000
   642  Cl    c     5.151877   -8.919919   20.853079    0.000000    1.485000
   643  Cl    c    14.871092   -3.634499    7.945652    0.000000    1.485000
   644  Cl    c     5.429315    5.450646   20.849778    0.000000    1.485000
   645  Cl    c     5.151604  -16.523263    7.953858    0.000000    1.485000
[...]
   1736 z         14.168915     14.166194    -0.002721    Cartesian   -0.02
   1737 x        -13.798849    -13.795886     0.002962    Cartesian   -0.02
   1737 y        -12.998884    -12.995828     0.003057    Cartesian   -0.02
   1737 z          1.263142      1.261509    -0.001633    Cartesian   -0.13
   1738 x         11.376153     11.376122    -0.000031    Cartesian   -0.00
   1738 y          2.098247      2.097108    -0.001138    Cartesian   -0.05
   1738 z         20.621802     20.620206    -0.001596    Cartesian   -0.01
   1739 x         -5.082063     -5.081428     0.000635    Cartesian   -0.01
   1739 y         12.998884     12.997311    -0.001573    Cartesian   -0.01
   1739 z         18.095518     18.095119    -0.000398    Cartesian   -0.00
   1740 x          8.228881      8.224612    -0.004270    Cartesian   -0.05
   1740 y          6.986098      6.980795    -0.005303    Cartesian   -0.08
   1740 z         -5.189744     -5.185859     0.003885    Cartesian   -0.07
   1741 x          8.229334      8.229819     0.000484    Cartesian    0.01
   1741 y          7.548696      7.546588    -0.002108    Cartesian   -0.03
   1741 z         20.621802     20.619560    -0.002242    Cartesian   -0.01
   1742 x        -10.652030    -10.651787     0.000243    Cartesian   -0.00
   1742 y          6.986098      6.982031    -0.004067    Cartesian   -0.06
   1742 z         -5.189744     -5.187201     0.002543    Cartesian   -0.05
   1743 x        -13.798396    -13.796433     0.001963    Cartesian   -0.01
   1743 y          2.098247      2.095842    -0.002405    Cartesian   -0.11
   1743 z         20.621802     20.619197    -0.002605    Cartesian   -0.01
   1744 x        -14.522971    -14.527199    -0.004228    Cartesian    0.03
   1744 y         10.619469     10.618492    -0.000977    Cartesian   -0.01
   1744 z          5.189744      5.186106    -0.003639    Cartesian   -0.07
   1745 x         -5.082516     -5.079557     0.002959    Cartesian   -0.06
   1745 y         16.069919     16.073158     0.003239    Cartesian    0.02
   1745 z          5.189744      5.186091    -0.003653    Cartesian   -0.07
   1746 x        -10.651577    -10.649741     0.001836    Cartesian   -0.02
   1746 y          7.548696      7.545565    -0.003131    Cartesian   -0.04
   1746 z         20.621802     20.619578    -0.002224    Cartesian   -0.01
   1747 x         -1.935697     -1.935681     0.000017    Cartesian   -0.00
   1747 y         14.253102     14.252598    -0.000504    Cartesian   -0.00
   1747 z         -1.263142     -1.264526    -0.001384    Cartesian    0.11
   1748 x          1.935244      1.935275     0.000031    Cartesian    0.00
   1748 y        -18.449334    -18.445310     0.004024    Cartesian   -0.02
   1748 z          1.263142      1.261871    -0.001271    Cartesian   -0.10
   1749 x          0.724123      0.721981    -0.002142    Cartesian   -0.30
   1749 y         -9.083821     -9.082883     0.000938    Cartesian   -0.01
   1749 z         24.548404     24.546465    -0.001939    Cartesian   -0.01
   1750 x          4.358393      4.358668     0.000275    Cartesian    0.01
   1750 y         -6.986098     -6.983813     0.002285    Cartesian   -0.03
   1750 z         24.548404     24.546491    -0.001914    Cartesian   -0.01
   1751 x        -11.376153    -11.376308    -0.000155    Cartesian    0.00
   1751 y        -16.632779    -16.627369     0.005410    Cartesian   -0.03
   1751 z          5.189744      5.191965     0.002221    Cartesian    0.04
   1752 x         16.945214     16.940761    -0.004453    Cartesian   -0.03
   1752 y         -0.281430     -0.278641     0.002789    Cartesian   -0.99
   1752 z          5.189744      5.191823     0.002078    Cartesian    0.04
   1753 x         -4.358393     -4.356676     0.001717    Cartesian   -0.04
   1753 y        -18.449334    -18.443804     0.005530    Cartesian   -0.03
   1753 z          1.263142      1.261520    -0.001622    Cartesian   -0.13
   1754 x         -0.724123     -0.729801    -0.005678    Cartesian    0.78
   1754 y        -19.985243    -19.984891     0.000352    Cartesian   -0.00
   1754 z          7.716029      7.714826    -0.001202    Cartesian   -0.02
   1755 x         14.522519     14.525068     0.002549    Cartesian    0.02
   1755 y        -11.182068    -11.177065     0.005003    Cartesian   -0.04
   1755 z          7.716029      7.714946    -0.001082    Cartesian   -0.01
   1756 x        -11.376153    -11.374296     0.001857    Cartesian   -0.02
   1756 y        -12.999146    -12.998252     0.000894    Cartesian   -0.01
   1756 z         18.095518     18.094781    -0.000737    Cartesian   -0.00
   1757 x         13.311397     13.308476    -0.002921    Cartesian   -0.02
   1757 y          9.084344      9.084226    -0.000118    Cartesian   -0.00
   1757 z         11.642631     11.639721    -0.002910    Cartesian   -0.02
   1758 x         11.375700     11.371896    -0.003804    Cartesian   -0.03
   1758 y          1.535648      1.532368    -0.003280    Cartesian   -0.21
   1758 z         -5.189744     -5.186562     0.003182    Cartesian   -0.06
   1759 x         -8.716333     -8.716996    -0.000663    Cartesian    0.01
   1759 y         -3.633372     -3.632984     0.000387    Cartesian   -0.01
   1759 z         24.548404     24.546192    -0.002212    Cartesian   -0.01
   1760 x          4.358393      4.358375    -0.000018    Cartesian   -0.00
   1760 y          3.914802      3.915525     0.000723    Cartesian    0.02
   1760 z         24.548404     24.546229    -0.002176    Cartesian   -0.01
   1761 x         -5.082516     -5.080292     0.002223    Cartesian   -0.04
   1761 y          5.169020      5.165120    -0.003900    Cartesian   -0.08
   1761 z         24.548404     24.544693    -0.003711    Cartesian   -0.02
   1762 x          5.569514      5.569392    -0.000122    Cartesian   -0.00
   1762 y        -12.717977    -12.716068     0.001909    Cartesian   -0.02
   1762 z         -5.189744     -5.188913     0.000831    Cartesian   -0.02
   1763 x          8.229334      8.225634    -0.003700    Cartesian   -0.04
   1763 y        -10.619469    -10.614029     0.005440    Cartesian   -0.05
   1763 z         -5.189744     -5.185872     0.003872    Cartesian   -0.07
   1764 x        -16.945667    -16.941724     0.003943    Cartesian   -0.02
   1764 y        -11.182068    -11.178539     0.003529    Cartesian   -0.03
   1764 z          7.716029      7.713374    -0.002655    Cartesian   -0.03
   1765 x         -5.569514     -5.569789    -0.000275    Cartesian    0.00
   1765 y        -16.351087    -16.348980     0.002107    Cartesian   -0.01
   1765 z         18.095518     18.094747    -0.000771    Cartesian   -0.00
   1766 x        -17.669337    -17.667396     0.001941    Cartesian   -0.01
   1766 y          5.731618      5.730299    -0.001319    Cartesian   -0.02
   1766 z         11.642631     11.642136    -0.000495    Cartesian   -0.00
   1767 x         15.009970     15.005046    -0.004924    Cartesian   -0.03
   1767 y          7.267005      7.265362    -0.001643    Cartesian   -0.02
   1767 z          7.716029      7.713408    -0.002621    Cartesian   -0.03
   1768 x        -13.798849    -13.797442     0.001406    Cartesian   -0.01
   1768 y          1.535648      1.533890    -0.001758    Cartesian   -0.11
   1768 z         -5.189744     -5.188231     0.001514    Cartesian   -0.03
   1769 x         11.863151     11.860749    -0.002403    Cartesian   -0.02
   1769 y         -1.817078     -1.816859     0.000219    Cartesian   -0.01
   1769 z         -5.189744     -5.188994     0.000751    Cartesian   -0.01
   1770 x         11.376153     11.372370    -0.003783    Cartesian   -0.03
   1770 y         -5.169020     -5.165096     0.003924    Cartesian   -0.08
   1770 z         -5.189744     -5.186341     0.003404    Cartesian   -0.07
   1771 x         13.798849     13.797136    -0.001713    Cartesian   -0.01
   1771 y          2.097985      2.097872    -0.000113    Cartesian   -0.01
   1771 z         18.095518     18.095142    -0.000376    Cartesian   -0.00
   1772 x        -10.651577    -10.651545     0.000032    Cartesian   -0.00
   1772 y        -10.619469    -10.615299     0.004170    Cartesian   -0.04
   1772 z         -5.189744     -5.187053     0.002691    Cartesian   -0.05
   1773 x        -13.798396    -13.797151     0.001245    Cartesian   -0.01
   1773 y         -5.169020     -5.166876     0.002143    Cartesian   -0.04
   1773 z         -5.189744     -5.188042     0.001703    Cartesian   -0.03
   1774 x         13.311397     13.310198    -0.001199    Cartesian   -0.01
   1774 y          5.450711      5.449991    -0.000720    Cartesian   -0.01
   1774 z         -1.263142     -1.264358    -0.001216    Cartesian    0.10
   1775 x          1.935697      1.935175    -0.000523    Cartesian   -0.03
   1775 y         11.182329     11.180033    -0.002296    Cartesian   -0.02
   1775 z         -5.189744     -5.188323     0.001421    Cartesian   -0.03
   1776 x         -8.716333     -8.715238     0.001095    Cartesian   -0.01
   1776 y        -18.167904    -18.165814     0.002090    Cartesian   -0.01
   1776 z         11.642631     11.642304    -0.000327    Cartesian   -0.00
   1777 x         -4.357940     -4.357026     0.000914    Cartesian   -0.02
   1777 y         11.182329     11.179690    -0.002640    Cartesian   -0.02
   1777 z         -5.189744     -5.188767     0.000978    Cartesian   -0.02
   1778 x         16.945667     16.943167    -0.002500    Cartesian   -0.01
   1778 y          0.281169      0.280859    -0.000310    Cartesian   -0.11
   1778 z         11.642631     11.642629    -0.000003    Cartesian   -0.00
   1779 x          8.716333      8.712708    -0.003625    Cartesian   -0.04
   1779 y        -10.901161    -10.899758     0.001403    Cartesian   -0.01
   1779 z         20.621802     20.618462    -0.003340    Cartesian   -0.02
   1780 x        -14.522519    -14.521394     0.001124    Cartesian   -0.01
   1780 y          7.548435      7.544351    -0.004084    Cartesian   -0.05
   1780 z         -1.263142     -1.260211     0.002931    Cartesian   -0.23
   1781 x        -17.669790    -17.668158     0.001632    Cartesian   -0.01
   1781 y         -9.365513     -9.363707     0.001806    Cartesian   -0.02
   1781 z         11.642631     11.642405    -0.000226    Cartesian   -0.00
   1782 x         11.863151     11.859754    -0.003397    Cartesian   -0.03
   1782 y         -5.450711     -5.450599     0.000112    Cartesian   -0.00
   1782 z         20.621802     20.619747    -0.002055    Cartesian   -0.01
   1783 x         13.311397     13.308355    -0.003042    Cartesian   -0.02
   1783 y        -12.717454    -12.716857     0.000597    Cartesian   -0.00
   1783 z         11.642631     11.640329    -0.002302    Cartesian   -0.02
   1784 x         16.945214     16.942587    -0.002627    Cartesian   -0.02
   1784 y         -3.915063     -3.913866     0.001198    Cartesian   -0.03
   1784 z         11.642631     11.642939     0.000308    Cartesian    0.00
   1785 x          0.724123      0.725260     0.001137    Cartesian    0.16
   1785 y        -19.984721    -19.983704     0.001017    Cartesian   -0.01
   1785 z          5.189744      5.190153     0.000408    Cartesian    0.01
   1786 x         13.798849     13.797341    -0.001508    Cartesian   -0.01
   1786 y        -12.436547    -12.437030    -0.000483    Cartesian    0.00
   1786 z          5.189744      5.190251     0.000506    Cartesian    0.01
   1787 x          4.357940      4.356814    -0.001126    Cartesian   -0.03
   1787 y          6.985836      6.988066     0.002230    Cartesian    0.03
   1787 z         -7.716029     -7.716758    -0.000729    Cartesian    0.01
   1788 x        -18.156788    -18.152653     0.004136    Cartesian   -0.02
   1788 y         -9.083821     -9.082385     0.001436    Cartesian   -0.02
   1788 z          5.189744      5.191682     0.001937    Cartesian    0.04
   1789 x        -19.605034    -19.608974    -0.003940    Cartesian    0.02
   1789 y          1.816555      1.819810     0.003255    Cartesian    0.18
   1789 z          7.716029      7.721069     0.005040    Cartesian    0.07
   1790 x         13.798849     13.795563    -0.003286    Cartesian   -0.02
   1790 y          9.365251      9.362394    -0.002857    Cartesian   -0.03
   1790 z          5.189744      5.191683     0.001938    Cartesian    0.04
   1791 x          5.082063      5.081191    -0.000872    Cartesian   -0.02
   1791 y         16.070180     16.075047     0.004867    Cartesian    0.03
   1791 z          7.716029      7.721038     0.005009    Cartesian    0.06
   1792 x         16.458216     16.455456    -0.002760    Cartesian   -0.02
   1792 y          3.633895      3.634784     0.000890    Cartesian    0.02
   1792 z         11.642631     11.640480    -0.002151    Cartesian   -0.02
   1793 x         -5.569514     -5.570934    -0.001420    Cartesian    0.03
   1793 y         -9.083821     -9.083145     0.000676    Cartesian   -0.01
   1793 z         24.548404     24.545919    -0.002485    Cartesian   -0.01
   1794 x          7.505211      7.505330     0.000118    Cartesian    0.00
   1794 y         -1.535648     -1.534128     0.001520    Cartesian   -0.10
   1794 z         24.548404     24.545970    -0.002434    Cartesian   -0.01
   1795 x          8.229334      8.230839     0.001505    Cartesian    0.02
   1795 y        -17.886735    -17.889388    -0.002653    Cartesian    0.01
   1795 z          7.716029      7.719120     0.003091    Cartesian    0.04
   1796 x          1.211574      1.209897    -0.001678    Cartesian   -0.14
   1796 y         16.632518     16.627193    -0.005325    Cartesian   -0.03
   1796 z         11.642631     11.644144     0.001513    Cartesian    0.01
   1797 x        -13.311397    -13.313785    -0.002388    Cartesian    0.02
   1797 y         12.717454     12.717912     0.000458    Cartesian    0.00
   1797 z          7.716029      7.716045     0.000016    Cartesian    0.00
   1798 x         -7.505211     -7.504401     0.000811    Cartesian   -0.01
   1798 y         16.070180     16.072397     0.002216    Cartesian    0.01
   1798 z          7.716029      7.715989    -0.000039    Cartesian   -0.00
   1799 x        -10.651577    -10.650513     0.001064    Cartesian   -0.01
   1799 y        -17.886735    -17.886328     0.000408    Cartesian   -0.00
   1799 z          7.716029      7.716231     0.000203    Cartesian    0.00
   1800 x         17.669790     17.668950    -0.000840    Cartesian   -0.00
   1800 y         -1.535386     -1.536150    -0.000764    Cartesian    0.05
   1800 z          7.716029      7.716130     0.000101    Cartesian    0.00
   1801 x          1.935244      1.934915    -0.000329    Cartesian   -0.02
   1801 y        -14.815701    -14.813120     0.002581    Cartesian   -0.02
   1801 z         -5.189744     -5.188723     0.001021    Cartesian   -0.02
   1802 x         -4.358393     -4.357487     0.000906    Cartesian   -0.02
   1802 y        -14.815701    -14.812762     0.002939    Cartesian   -0.02
   1802 z         -5.189744     -5.189096     0.000649    Cartesian   -0.01
   1803 x         -8.228881     -8.226365     0.002517    Cartesian   -0.03
   1803 y         -6.986098     -6.982121     0.003976    Cartesian   -0.06
   1803 z         24.548404     24.544512    -0.003892    Cartesian   -0.02
   1804 x          7.017760      7.013067    -0.004693    Cartesian   -0.07
   1804 y          1.817078      1.816913    -0.000165    Cartesian   -0.01
   1804 z         24.548404     24.544543    -0.003861    Cartesian   -0.02
   1805 x        -14.522519    -14.521054     0.001465    Cartesian   -0.01
   1805 y         11.182068     11.180037    -0.002031    Cartesian   -0.02
   1805 z         11.642631     11.642350    -0.000282    Cartesian   -0.00
   1806 x         16.458216     16.454213    -0.004003    Cartesian   -0.02
   1806 y         -7.267005     -7.266989     0.000016    Cartesian   -0.00
   1806 z         11.642631     11.639973    -0.002658    Cartesian   -0.02
   1807 x         -1.935697     -1.933840     0.001857    Cartesian   -0.10
   1807 y         14.253102     14.248198    -0.004904    Cartesian   -0.03
   1807 z         18.095518     18.092234    -0.003284    Cartesian   -0.02
   1808 x         -8.228881     -8.227102     0.001779    Cartesian   -0.02
   1808 y          3.914802      3.916365     0.001563    Cartesian    0.04
   1808 z         24.548404     24.545442    -0.002962    Cartesian   -0.01
   1809 x         -2.422696     -2.424949    -0.002253    Cartesian    0.09
   1809 y          7.267528      7.266784    -0.000744    Cartesian   -0.01
   1809 z         24.548404     24.545463    -0.002942    Cartesian   -0.01
   1810 x        -20.092033    -20.094787    -0.002754    Cartesian    0.01
   1810 y         -1.535386     -1.534242     0.001145    Cartesian   -0.07
   1810 z          7.716029      7.720844     0.004815    Cartesian    0.06
   1811 x          8.229334      8.229711     0.000376    Cartesian    0.00
   1811 y         14.815962     14.818796     0.002833    Cartesian    0.02
   1811 z          7.716029      7.720753     0.004724    Cartesian    0.06
   1812 x        -10.651577    -10.647056     0.004521    Cartesian   -0.04
   1812 y         14.815962     14.808129    -0.007833    Cartesian   -0.05
   1812 z          7.716029      7.711660    -0.004369    Cartesian   -0.06
   1813 x         -5.082063     -5.082240    -0.000177    Cartesian    0.00
   1813 y         16.632518     16.628465    -0.004052    Cartesian   -0.02
   1813 z         11.642631     11.643888     0.001257    Cartesian    0.01
   1814 x          1.211121      1.209312    -0.001809    Cartesian   -0.15
   1814 y        -20.266412    -20.260726     0.005686    Cartesian   -0.03
   1814 z         11.642631     11.644409     0.001778    Cartesian    0.02
   1815 x         -1.935697     -1.935406     0.000291    Cartesian   -0.02
   1815 y        -11.182329    -11.181995     0.000335    Cartesian   -0.00
   1815 z         24.548404     24.546476    -0.001928    Cartesian   -0.01
   1816 x          7.504758      7.504326    -0.000433    Cartesian   -0.01
   1816 y         -5.731880     -5.732006    -0.000126    Cartesian    0.00
   1816 z         24.548404     24.546468    -0.001936    Cartesian   -0.01
--------------------------------------------------------------------------------


  Time to end of optimisation  =      591.1404 seconds


  Peak dynamic memory used =     479.77 MB 


  Timing analysis for GULP :

--------------------------------------------------------------------------------
  Task / Subroutine                                          Time (Seconds)
--------------------------------------------------------------------------------
  Calculation of reciprocal space energy and derivatives          0.0059
  Calculation of reciprocal space energy using symmetry           0.0614
  Calculation of real space energy and derivatives                0.0248
  Calculation of real space energy using symmetry                 1.0939
  Calculation for region 1 energy and derivatives (2-b)         183.4428
  Calculation for region 2a energy                               68.8501
  Calculation for region 2b energy                                0.0104
  Calculation and manipulation of Hessian matrix                  0.1210
  Calculation of matrix inversion                               334.5453
  Symmetry generation of equivalent positions                     0.0027
  Global summation overhead                                       0.0003
--------------------------------------------------------------------------------
  Total CPU time                                                591.1404
--------------------------------------------------------------------------------


  Dump file written as ScCl3.grs



  **** GULP has completed with   2 warnings - beware! ****

  Job Finished at 11:44.01 18th August     2021                               

