********************************************************************************
*                       GENERAL UTILITY LATTICE PROGRAM                        *
*                                 Julian Gale                                  *
*                       Curtin Institute for Computation                       *
*                    School of Molecular and Life Sciences                     *
*                    Curtin University, Western Australia                      *
********************************************************************************
* Version = 5.2.0 * Last modified =  10th September 2020                       *
********************************************************************************
*  optimise     - perform optimisation run                                     *
*  conp         - constant pressure calculation                                *
*  property     - calculate properties for final geometry                      *
*  defect       - perform defect calculation after bulk run                    *
*  compare      - compare initial and final structures                         *
********************************************************************************

  Job Started  at 11:34.44 18th August     2021                               

  Number of CPUs =     1


  Total number of configurations input =      1

********************************************************************************
*  Input for Configuration =   1                                               *
********************************************************************************

  Formula = Sc2Cl6                                                      

  Number of irreducible atoms/shells =       3


  Total number atoms/shells =      14

  Dimensionality = 3               :  Bulk   


  Symmetry :

  Crystal family                   :  Hexagonal   
  Crystal class  (Groth - 1921)    :  Trigonal Rhombohedral                

  Space group (centrosymmetric)    :  R -3            

  Patterson group                  :  R -3     

  Cartesian lattice vectors (Angstroms) :

        3.246588    1.874418    6.441540
       -3.246588    1.874418    6.441540
        0.000000   -3.748837    6.441540

  Cell parameters (Angstroms/Degrees):

  a =       7.4530    alpha =  51.6480
  b =       7.4530    beta  =  51.6480
  c =       7.4530    gamma =  51.6480

  Initial cell volume =         235.198534 Angs**3

  Temperature of configuration =   0.00     K 

  Pressure of configuration =         0.000 GPa 

  Fractional coordinates of asymmetric unit :

--------------------------------------------------------------------------------
   No.  Atomic       x           y          z         Charge      Occupancy
        Label      (Frac)      (Frac)     (Frac)        (e)         (Frac)  
--------------------------------------------------------------------------------
      1 Sc    c    0.333900    0.333900    0.333900 *   3.00000    1.000000    
      2 Cl    c    0.073700 *  0.443900 *  0.705300 *   1.48500    1.000000    
      3 Cl    s    0.073700 *  0.443900 *  0.705300 *  -2.48500    1.000000    
--------------------------------------------------------------------------------


  Constraints : 

--------------------------------------------------------------------------------
  Constraint no.      Unconstrained     Constrained    Coefficient    Offset
                         Variable         Variable
--------------------------------------------------------------------------------
           1              Strain 1        Strain 2       1.00000      0.0000
--------------------------------------------------------------------------------


********************************************************************************
*  General input information                                                   *
********************************************************************************

  Species output for all configurations : 

--------------------------------------------------------------------------------
  Species    Type    Atomic    Atomic    Charge       Radii (Angs)     Library
                     Number     Mass       (e)     Cova   Ionic  VDW   Symbol
--------------------------------------------------------------------------------
    Sc       Core       21      44.96   3.000000   1.440  0.000  2.150          
    Cl       Core       17      35.45   1.485000   0.990  0.000  1.650          
    Cl       Shell      17       0.00  -2.485000   0.990  0.000  1.650          
--------------------------------------------------------------------------------


  Lattice summation method               =    Ewald          (3-D)
                                         =    Parry          (2-D)
                                         =    Saunders et al (1-D)
  Accuracy factor for lattice sums       =   12.000


  Analytic derivatives to be used

  Time limit = Infinity

  Maximum range for interatomic potentials =    100000.000000 Angstroms

  General interatomic potentials :

--------------------------------------------------------------------------------
Atom  Types   Potential      Parameter       Value         Units   Cutoffs(Ang)
  1     2                                                            Min /  Max 
--------------------------------------------------------------------------------
Cl   c Cl   s Spring (c-s)  Spring k 2       29.380000    eV*Ang^-2 0.000  0.800
                            Spring k 4       0.0000000    eV*Ang^-4 
--------------------------------------------------------------------------------
Sc   c Cl   s Buckingham    Buckingham A     12131.350    eV        0.000 12.000
                            Buckingham rho  0.25070000    Ang       
                            Buckingham C     0.0000000    eV*Ang^6  
--------------------------------------------------------------------------------
Cl   s Cl   s Buckingham    Buckingham A     1227.2000    eV        0.000 12.000
                            Buckingham rho  0.32100000    Ang       
                            Buckingham C     14.530000    eV*Ang^6  
--------------------------------------------------------------------------------

********************************************************************************
*  Output for configuration   1                                                *
********************************************************************************


  Components of energy : 

--------------------------------------------------------------------------------
  Interatomic potentials     =           6.77737779 eV    
  Monopole - monopole (real) =         -30.86300284 eV    
  Monopole - monopole (recip)=         -65.52201623 eV    
  Monopole - monopole (total)=         -96.38501907 eV    
--------------------------------------------------------------------------------
  Total lattice energy : 
    Primitive unit cell      =         -89.60764128 eV    
    Non-primitive unit cell  =        -268.82292384 eV    
--------------------------------------------------------------------------------
  Total lattice energy (in kJmol-1): 
    Primitive unit cell      =           -8645.7676 kJ/(mole unit cells)
    Non-primitive unit cell  =          -25937.3028 kJ/(mole unit cells)
--------------------------------------------------------------------------------


  Number of variables =        9

  Maximum number of calculations  =          1000
  Maximum Hessian update interval =            10
  Maximum step size               =   1.000000000
  Maximum parameter tolerance     =   0.000010000
  Maximum function  tolerance     =   0.000010000
  Maximum gradient  tolerance     =   0.001000000
  Maximum gradient  component     =   0.010000000

  Symmetry constrained optimisation

  Symmetry used for second derivatives

  Cell parameters to be optimised using strains

  Newton-Raphson optimiser to be used

  BFGS hessian update to be used

  Lower half triangular hessian to be used

  Start of bulk optimisation :

  Cycle:      0 Energy:       -89.607641  Gnorm:    194.660938  CPU:    0.017
  ** Hessian calculated **
  Cycle:      1 Energy:       -99.336245  Gnorm:     16.922396  CPU:    0.031
  Cycle:      2 Energy:       -99.561570  Gnorm:      7.561347  CPU:    0.049
  Cycle:      3 Energy:       -99.729576  Gnorm:      4.412393  CPU:    0.067
  Cycle:      4 Energy:       -99.829400  Gnorm:      2.218678  CPU:    0.085
  Cycle:      5 Energy:       -99.844572  Gnorm:      0.723795  CPU:    0.100
  Cycle:      6 Energy:       -99.846381  Gnorm:      0.448826  CPU:    0.119
  Cycle:      7 Energy:       -99.846853  Gnorm:      0.344817  CPU:    0.134
  Cycle:      8 Energy:       -99.849123  Gnorm:      0.319075  CPU:    0.159
  Cycle:      9 Energy:       -99.851112  Gnorm:      0.253552  CPU:    0.181
  Cycle:     10 Energy:       -99.852597  Gnorm:      0.161985  CPU:    0.204
  ** Hessian calculated **
  Cycle:     11 Energy:       -99.854095  Gnorm:      0.114649  CPU:    0.235
  Cycle:     12 Energy:       -99.855517  Gnorm:      0.062367  CPU:    0.258
  Cycle:     13 Energy:       -99.856271  Gnorm:      0.091299  CPU:    0.277
  Cycle:     14 Energy:       -99.856398  Gnorm:      0.057833  CPU:    0.300
  Cycle:     15 Energy:       -99.709969  Gnorm:      9.382415  CPU:    0.363
  ** Hessian calculated **
  Cycle:     16 Energy:       -99.834592  Gnorm:      3.493936  CPU:    0.392
  Cycle:     17 Energy:       -99.855984  Gnorm:      0.183406  CPU:    0.407
  Cycle:     18 Energy:       -99.856377  Gnorm:      0.024886  CPU:    0.426
  ** Hessian calculated **
  Cycle:     19 Energy:       -99.856378  Gnorm:      0.010051  CPU:    0.448
  Cycle:     20 Energy:       -99.856379  Gnorm:      0.013393  CPU:    0.463
  Cycle:     21 Energy:       -99.856379  Gnorm:      0.009613  CPU:    0.478
  Cycle:     22 Energy:       -99.856380  Gnorm:      0.011718  CPU:    0.494
  Cycle:     23 Energy:       -99.856381  Gnorm:      0.013744  CPU:    0.509
  Cycle:     24 Energy:       -99.856381  Gnorm:      0.012669  CPU:    0.524
  Cycle:     25 Energy:       -99.856382  Gnorm:      0.013916  CPU:    0.540
  Cycle:     26 Energy:       -99.856383  Gnorm:      0.012516  CPU:    0.555
  Cycle:     27 Energy:       -99.856383  Gnorm:      0.006850  CPU:    0.570
  Cycle:     28 Energy:       -99.856383  Gnorm:      0.005130  CPU:    0.586
  ** Hessian calculated **
  Cycle:     29 Energy:       -99.856383  Gnorm:      0.005098  CPU:    0.607
  Cycle:     30 Energy:       -99.856383  Gnorm:      0.005050  CPU:    0.622
  Cycle:     31 Energy:       -99.856384  Gnorm:      0.004978  CPU:    0.638
  Cycle:     32 Energy:       -99.856384  Gnorm:      0.004870  CPU:    0.653
  Cycle:     33 Energy:       -99.856385  Gnorm:      0.004708  CPU:    0.668
  Cycle:     34 Energy:       -99.856385  Gnorm:      0.004465  CPU:    0.684
  Cycle:     35 Energy:       -99.856387  Gnorm:      0.004100  CPU:    0.699
  Cycle:     36 Energy:       -99.856389  Gnorm:      0.003183  CPU:    0.719
  Cycle:     37 Energy:       -99.856390  Gnorm:      0.002732  CPU:    0.738
  Cycle:     38 Energy:       -99.856390  Gnorm:      0.002622  CPU:    0.757
  ** Hessian calculated **
  Cycle:     39 Energy:       -99.856390  Gnorm:      0.002617  CPU:    0.793
  Cycle:     40 Energy:       -99.856390  Gnorm:      0.002611  CPU:    0.819
  Cycle:     41 Energy:       -99.856390  Gnorm:      0.002596  CPU:    0.846
  Cycle:     42 Energy:       -99.856390  Gnorm:      0.002573  CPU:    0.872
  Cycle:     43 Energy:       -99.856391  Gnorm:      0.002556  CPU:    0.902
  Cycle:     44 Energy:       -99.856391  Gnorm:      0.002551  CPU:    0.918
  Cycle:     45 Energy:       -99.856376  Gnorm:      0.010367  CPU:    0.963
  ** Hessian calculated **
  Cycle:     46 Energy:       -99.856376  Gnorm:      0.003162  CPU:    0.984
  Cycle:     47 Energy:       -99.856376  Gnorm:      0.004154  CPU:    0.999
  Cycle:     48 Energy:       -99.856376  Gnorm:      0.004258  CPU:    1.014
  Cycle:     49 Energy:       -99.856376  Gnorm:      0.003063  CPU:    1.030
  Cycle:     50 Energy:       -99.856376  Gnorm:      0.003213  CPU:    1.045
  Cycle:     51 Energy:       -99.856376  Gnorm:      0.002448  CPU:    1.061
  Cycle:     52 Energy:       -99.856376  Gnorm:      0.002432  CPU:    1.076
  Cycle:     53 Energy:       -99.856376  Gnorm:      0.002202  CPU:    1.091
  Cycle:     54 Energy:       -99.856376  Gnorm:      0.003030  CPU:    1.106
  Cycle:     55 Energy:       -99.856377  Gnorm:      0.003988  CPU:    1.122
  ** Hessian calculated **
  Cycle:     56 Energy:       -99.856377  Gnorm:      0.003870  CPU:    1.143
  Cycle:     57 Energy:       -99.856377  Gnorm:      0.003694  CPU:    1.158
  Cycle:     58 Energy:       -99.856377  Gnorm:      0.003429  CPU:    1.174
  Cycle:     59 Energy:       -99.856377  Gnorm:      0.003032  CPU:    1.189
  Cycle:     60 Energy:       -99.856378  Gnorm:      0.002436  CPU:    1.204
  Cycle:     61 Energy:       -99.856378  Gnorm:      0.001545  CPU:    1.220


  **** Optimisation achieved ****


  Final energy =     -99.85637867 eV
  Final Gnorm  =       0.00022970

  Components of energy : 

--------------------------------------------------------------------------------
  Interatomic potentials     =          20.55356182 eV    
  Monopole - monopole (real) =          80.99460097 eV    
  Monopole - monopole (recip)=        -201.40454146 eV    
  Monopole - monopole (total)=        -120.40994049 eV    
--------------------------------------------------------------------------------
  Total lattice energy : 
    Primitive unit cell      =         -99.85637867 eV    
    Non-primitive unit cell  =        -299.56913600 eV    
--------------------------------------------------------------------------------
  Total lattice energy (in kJmol-1): 
    Primitive unit cell      =           -9634.6141 kJ/(mole unit cells)
    Non-primitive unit cell  =          -28903.8423 kJ/(mole unit cells)
--------------------------------------------------------------------------------

  Final asymmetric unit coordinates :

--------------------------------------------------------------------------------
   No.  Atomic        x           y           z         Radius
        Label       (Frac)      (Frac)      (Frac)       (Angs) 
--------------------------------------------------------------------------------
     1  Sc    c     0.333302    0.333302    0.333302    0.000000
     2  Cl    c     0.077345    0.440528    0.713912    0.000000
     3  Cl    s     0.065297    0.450169    0.680282    0.000000
--------------------------------------------------------------------------------

  Final Cartesian lattice vectors (Angstroms) :

        3.146819    1.816817    6.452887
       -3.146819    1.816817    6.452887
        0.000000   -3.633633    6.452887


  Final cell parameters and derivatives :

--------------------------------------------------------------------------------
       a            7.405608 Angstrom     dE/de1(xx)    -0.000123 eV/strain
       b            7.405608 Angstrom     dE/de2(yy)     0.000000 eV/strain
       c            7.405608 Angstrom     dE/de3(zz)    -0.000049 eV/strain
       alpha       50.291669 Degrees      dE/de4(yz)     0.000000 eV/strain
       beta        50.291669 Degrees      dE/de5(xz)     0.000000 eV/strain
       gamma       50.291669 Degrees      dE/de6(xy)     0.000000 eV/strain
--------------------------------------------------------------------------------

  Primitive cell volume =           221.354351 Angs**3

  Density of cell =      2.270208 g/cm**3

  Non-primitive lattice parameters :

  a    =     6.293637  b   =     6.293637  c    =    19.358660
  alpha=    90.000000  beta=    90.000000  gamma=   120.000000

  Non-primitive cell volume =           664.063053 Angs**3


  Final internal derivatives :

--------------------------------------------------------------------------------
   No.  Atomic          a             b             c           Radius
        Label          (eV)          (eV)          (eV)        (eV/Angs)
--------------------------------------------------------------------------------
      1 Sc    c       0.000000      0.000000      0.000333      0.000000
      2 Cl    c      -0.000512      0.000026      0.001871      0.000000
      3 Cl    s      -0.000302      0.000461     -0.000278      0.000000
--------------------------------------------------------------------------------
  Maximum abs         0.000512      0.000461      0.001871      0.000000
--------------------------------------------------------------------------------

  Comparison of initial and final structures : 

--------------------------------------------------------------------------------
  Parameter   Initial value   Final value   Difference    Units      Percent
--------------------------------------------------------------------------------
    Volume       705.595603    664.063053   -41.532550    Angs**3     -5.89
    a              6.493176      6.293637    -0.199538    Angstroms   -3.07
    b              6.493176      6.293637    -0.199538    Angstroms   -3.07
    c             19.324619     19.358660     0.034041    Angstroms    0.18
    alpha         90.000000     90.000000     0.000000    Degrees      0.00
    beta          90.000000     90.000000     0.000000    Degrees      0.00
    gamma        120.000000    120.000000     0.000000    Degrees      0.00
      1 x          0.000000      0.000000     0.000000    Fractional   0.00
      1 y          0.000000      0.000000     0.000000    Fractional   0.00
      1 z          0.333900      0.333302     0.000598    Fractional   0.18
      2 x          0.666067      0.666750     0.000683    Fractional   0.10
      2 y          0.702333      0.696683     0.005650    Fractional   0.80
      2 z          0.407633      0.410595     0.002962    Fractional   0.73
      3 x          0.666067      0.666715     0.000648    Fractional   0.10
      3 y          0.702333      0.718301     0.015968    Fractional   2.27
      3 z          0.407633      0.398583     0.009051    Fractional   2.22
--------------------------------------------------------------------------------


  Born effective charge tensors : 

-------------------------------------------------------------------------------
  Atom             x           y             z
-------------------------------------------------------------------------------
    1 Sc    x       1.8547     -0.0008      0.0000
            y       0.0008      1.8547      0.0000
            z       0.0000      0.0000      1.3341
-------------------------------------------------------------------------------
    2 Cl    x      -0.6622     -0.0739     -0.0054
            y      -0.0744     -0.5743      0.0077
            z      -0.0118      0.0242     -0.4447
-------------------------------------------------------------------------------




  Elastic Constant Matrix: (Units=GPa)

-------------------------------------------------------------------------------
  Indices      1         2         3         4         5         6    
-------------------------------------------------------------------------------
       1     59.0042   36.7253    0.0676   -0.0391    0.0164    0.0000
       2     36.7253   59.0042    0.0676    0.0391   -0.0164   -0.0000
       3      0.0676    0.0676    1.3662   -0.0000   -0.0000    0.0000
       4     -0.0391    0.0391   -0.0000    0.1362   -0.0000   -0.0164
       5      0.0164   -0.0164   -0.0000   -0.0000    0.1362   -0.0391
       6      0.0000   -0.0000    0.0000   -0.0164   -0.0391   11.1394
-------------------------------------------------------------------------------


  Elastic Compliance Matrix: (Units=1/GPa)

-------------------------------------------------------------------------------
  Indices      1         2         3         4         5         6    
-------------------------------------------------------------------------------
       1    0.027693 -0.017246 -0.000517  0.012917 -0.005403 -0.000000
       2   -0.017246  0.027693 -0.000517 -0.012917  0.005403  0.000000
       3   -0.000517 -0.000517  0.731998 -0.000000  0.000000 -0.000000
       4    0.012917 -0.012917 -0.000000  7.352608  0.000000  0.010807
       5   -0.005403  0.005403  0.000000  0.000000  7.352608  0.025834
       6   -0.000000  0.000000 -0.000000  0.010807  0.025834  0.089878
-------------------------------------------------------------------------------

  Mechanical properties :

-------------------------------------------------------------------------------
  Convention :                    Reuss         Voigt         Hill
-------------------------------------------------------------------------------
  Bulk  Modulus (GPa)     =       1.33187      21.45510      11.39349
  Shear Modulus (GPa)     =       0.31507       7.78329       4.04918
-------------------------------------------------------------------------------
  Velocity S-wave (km/s)  =       0.37254       1.85161       1.33552
  Velocity P-wave (km/s)  =       0.87848       3.74459       2.71972
-------------------------------------------------------------------------------
  Compressibility (1/GPa) =    0.75082247
-------------------------------------------------------------------------------
  Stress axis :                     x             y             z
-------------------------------------------------------------------------------
  Youngs Moduli (GPa)     =      36.11042      36.11042       1.36612
-------------------------------------------------------------------------------
  Poissons Ratio (x)      =                     0.62276       0.00071
  Poissons Ratio (y)      =       0.62276                     0.00071
  Poissons Ratio (z)      =       0.01868       0.01868
-------------------------------------------------------------------------------


  Piezoelectric Strain Matrix: (Units=C/m**2)

-------------------------------------------------------------------------------
  Indices      1         2         3         4         5         6    
-------------------------------------------------------------------------------
       x    -0.00000  -0.00000  -0.00000  -0.00000  -0.00000  -0.00000
       y     0.00000  -0.00000   0.00000   0.00000   0.00000  -0.00000
       z    -0.00000   0.00000  -0.00000   0.00000  -0.00000  -0.00000
-------------------------------------------------------------------------------


  Piezoelectric Stress Matrix: (Units=10**-11 C/N)

-------------------------------------------------------------------------------
  Indices      1         2         3         4         5         6    
-------------------------------------------------------------------------------
       x    -0.00000  -0.00000  -0.00000  -0.00000  -0.00000  -0.00000
       y     0.00000  -0.00000   0.00000   0.00000   0.00000  -0.00000
       z    -0.00000   0.00000  -0.00000   0.00000  -0.00000  -0.00000
-------------------------------------------------------------------------------


  Static dielectric constant tensor : 

-------------------------------------------------------------------------------
              x         y         z
-------------------------------------------------------------------------------
       x     2.69429  -0.00000   0.00000
       y    -0.00000   2.69429   0.00000
       z     0.00000   0.00000   2.22327
--------------------------------------------------------------------------------

  High frequency dielectric constant tensor : 

-------------------------------------------------------------------------------
              x         y         z
-------------------------------------------------------------------------------
       x     2.11991  -0.00000   0.00000
       y    -0.00000   2.11991   0.00000
       z     0.00000   0.00000   1.97865
-------------------------------------------------------------------------------

  Static refractive indices : 

-------------------------------------------------------------------------------
    1 =    1.49106      2 =    1.64143      3 =    1.64143
-------------------------------------------------------------------------------

  High frequency refractive indices : 

-------------------------------------------------------------------------------
    1 =    1.40664      2 =    1.45599      3 =    1.45599
-------------------------------------------------------------------------------


  Time to end of optimisation =       1.2656 seconds

********************************************************************************
*  Defect calculation for configuration   1 :                                  *
********************************************************************************



!!!!!!!!!!!!!!!!!!!!!!!!!!!!!!!!!!!!!!!!!!!!!!!!!!!!!!!!!!!!!!!!!!!!!!!!!!!!!!!!
!! WARNING : Ambiguous vacancy specifier used
!!!!!!!!!!!!!!!!!!!!!!!!!!!!!!!!!!!!!!!!!!!!!!!!!!!!!!!!!!!!!!!!!!!!!!!!!!!!!!!!



!!!!!!!!!!!!!!!!!!!!!!!!!!!!!!!!!!!!!!!!!!!!!!!!!!!!!!!!!!!!!!!!!!!!!!!!!!!!!!!!
!! WARNING : Ambiguous vacancy specifier used
!!!!!!!!!!!!!!!!!!!!!!!!!!!!!!!!!!!!!!!!!!!!!!!!!!!!!!!!!!!!!!!!!!!!!!!!!!!!!!!!

  Total number of defects =      2

  Total charge on defect  =   1.00

  Defect centre is at   0.0737   0.4439   0.7053  Frac

  Region 1 radius =  20.0000      Number of ions =   2077

  Region 2 radius =  24.0000      Number of ions =   1586

  Region 2a mode = 4 : screened electrostatics due to region 1 
                       neglect correction to region 1 forces from 2a
                       region 2a displacements based on defects only

  Region 2a ions will only interact with defects in region 1

  Vacancies:

--------------------------------------------------------------------------------
    Specification type     Symbol/Number         x          y          z
--------------------------------------------------------------------------------
    Atom                    Cl    core
    Atom                    Cl    shel
--------------------------------------------------------------------------------


  Components of defect energy : 

--------------------------------------------------------------------------------
  Region 1 - region 1                   =     15.66793541 eV
  Region 1 - region 2a (unrelaxed)      =     -5.38383057 eV
  Region 1 - 2a (relaxed - correction)  =     -0.07284496 eV
  Region 1 (Total)                      =     10.21125988 eV
  Region 2a                             =      0.03642448 eV
  Region 2b                             =     -0.18201796 eV
--------------------------------------------------------------------------------
  Total defect energy                   =     10.06566640 eV
--------------------------------------------------------------------------------

  Largest displacement in region 2 =   0.0044 Angstroms


  Number of variables =     6231

  Maximum number of calculations  =        1000
  Maximum Hessian update interval =          10
  Maximum step size               =   1.0000000
  Maximum parameter tolerance     =   0.0000100
  Maximum function  tolerance     =   0.0000100
  Maximum gradient  tolerance     =   0.0010000

  Symmetry adapted optimisation

  Newton-Raphson optimiser to be used

  BFGS hessian update to be used

  Lower half triangular hessian to be used

  Start of defect optimisation :

  Cycle:      0 Defect Energy:  10.065666  Gnorm:     0.002936  CPU:   38.193
  ** Hessian calculated **
  Cycle:      1 Defect Energy:   9.075529  Gnorm:     0.002420  CPU:  304.934
  Cycle:      2 Defect Energy:   7.891017  Gnorm:     0.001609  CPU:  347.798
  Cycle:      3 Defect Energy:   6.922137  Gnorm:     0.000434  CPU:  381.206
  Cycle:      4 Defect Energy:   6.847883  Gnorm:     0.000293  CPU:  388.133
  Cycle:      5 Defect Energy:   6.795763  Gnorm:     0.000195  CPU:  394.934
  Cycle:      6 Defect Energy:   6.771896  Gnorm:     0.000145  CPU:  401.765
  Cycle:      7 Defect Energy:   6.765001  Gnorm:     0.000121  CPU:  408.202
  ** Hessian calculated **
  Cycle:      8 Defect Energy:   6.742871  Gnorm:     0.000084  CPU:  539.526
  Cycle:      9 Defect Energy:   6.731767  Gnorm:     0.000059  CPU:  545.390
  Cycle:     10 Defect Energy:   6.725945  Gnorm:     0.000041  CPU:  551.361
  Cycle:     11 Defect Energy:   6.722903  Gnorm:     0.000029  CPU:  556.948
  Cycle:     12 Defect Energy:   6.721290  Gnorm:     0.000020  CPU:  561.755
  Cycle:     13 Defect Energy:   6.720463  Gnorm:     0.000014  CPU:  566.562
  Cycle:     14 Defect Energy:   6.720023  Gnorm:     0.000010  CPU:  571.373
  Cycle:     15 Defect Energy:   6.719802  Gnorm:     0.000007  CPU:  576.406
  Cycle:     16 Defect Energy:   6.719698  Gnorm:     0.000005  CPU:  581.927
  Cycle:     17 Defect Energy:   6.719641  Gnorm:     0.000003  CPU:  587.556
  ** Hessian calculated **
  Cycle:     18 Defect Energy:   6.719618  Gnorm:     0.000002  CPU:  692.093
  Cycle:     19 Defect Energy:   6.719604  Gnorm:     0.000002  CPU:  698.751
  Cycle:     20 Defect Energy:   6.719593  Gnorm:     0.000001  CPU:  703.916


  **** Optimisation achieved ****


  Final defect energy  =        6.71958968
  Final defect Gnorm   =        0.00000083

  Components of defect energy : 

--------------------------------------------------------------------------------
  Region 1 - region 1                   =     12.49621437 eV
  Region 1 - region 2a (unrelaxed)      =     -5.56304150 eV
  Region 1 - 2a (relaxed - correction)  =     -0.06276141 eV
  Region 1 (Total)                      =      6.87041145 eV
  Region 2a                             =      0.03136944 eV
  Region 2b                             =     -0.18219121 eV
--------------------------------------------------------------------------------
  Total defect energy                   =      6.71958968 eV
--------------------------------------------------------------------------------

  Largest displacement in region 2 =   0.0044 Angstroms

  Final coordinates of region 1 :

--------------------------------------------------------------------------------
   No.  Atomic        x           y           z          Radius      Charge
        Label       (Angs)      (Angs)      (Angs)       (Angs)       (e) 
--------------------------------------------------------------------------------
     1  Sc    c    -3.498719   -2.004742    6.156839    0.000000    3.000000
     2  Sc    c     0.338916    0.208929    6.160667    0.000000    3.000000
     3  Cl    c    -1.818818   -0.482262    5.283231    0.000000    1.485000
     4  Cl    c    -4.347819   -0.260792    7.710956    0.000000    1.485000
     5  Cl    c    -0.746880    1.817194    7.713760    0.000000    1.485000
     6  Cl    c    -3.800580   -3.675880    7.962168    0.000000    1.485000
     7  Cl    c     1.938094   -0.364467    7.965233    0.000000    1.485000
     8  Cl    c    -2.371130   -3.772666    4.830510    0.000000    1.485000
     9  Cl    c     1.305354   -1.652004    4.834264    0.000000    1.485000
    10  Cl    c    -1.061527   -5.636909    7.874423    0.000000    1.485000
    11  Cl    c     2.266211   -3.717979    7.875820    0.000000    1.485000
    12  Cl    c    -1.992566    0.175447   11.386289    0.000000    1.485000
    13  Cl    c     0.832145   -1.818067   11.380624    0.000000    1.485000
    14  Cl    c    -2.000185   -3.809552   11.395151    0.000000    1.485000
    15  Sc    c    -3.107553   -5.583481    6.442354    0.000000    3.000000
    16  Sc    c     3.242977   -1.918478    6.444916    0.000000    3.000000
    17  Cl    c    -5.423112   -1.566874    4.666277    0.000000    1.485000
    18  Cl    c     0.923188    2.093632    4.669189    0.000000    1.485000
    19  Cl    c     1.154748    1.634625   11.383637    0.000000    1.485000
    20  Sc    c     0.003291    0.001253   12.896205    0.000000    3.000000
    21  Cl    c     1.179401   -5.676986    4.915437    0.000000    1.485000
    22  Sc    c     0.001994   -3.639029   12.894693    0.000000    3.000000
    23  Cl    c    -5.442938   -1.820375   11.387183    0.000000    1.485000
    24  Sc    c    -6.436802    0.069127    6.318364    0.000000    3.000000
    25  Sc    c     0.012211    3.790425    6.320011    0.000000    3.000000
    26  Cl    c     1.152364   -5.275006   11.386434    0.000000    1.485000
    27  Sc    c     0.054324   -7.348917    6.407668    0.000000    3.000000
    28  Sc    c     3.190188   -5.539311    6.407234    0.000000    3.000000
    29  Cl    c    -5.486360    1.870393    4.871600    0.000000    1.485000
    30  Cl    c    -2.022171    3.868112    4.872110    0.000000    1.485000
    31  Cl    c    -5.139195    1.631404   11.371269    0.000000    1.485000
    32  Cl    c    -4.286657    3.792070    7.859678    0.000000    1.485000
    33  Cl    c    -7.441353   -1.657708    7.821094    0.000000    1.485000
    34  Cl    c    -1.960721   -7.189978    4.917355    0.000000    1.485000
    35  Cl    c     4.060186   -3.713787    4.918268    0.000000    1.485000
    36  Cl    c     2.010640    3.798762    7.821752    0.000000    1.485000
    37  Cl    c    -4.297674   -7.140386    7.985750    0.000000    1.485000
    38  Cl    c     5.187609   -1.665624    7.986581    0.000000    1.485000
    39  Cl    c     2.037447   -7.163258    7.922215    0.000000    1.485000
    40  Cl    c    -5.166836   -5.600314    5.022583    0.000000    1.485000
    41  Cl    c     4.285669   -0.143715    5.023716    0.000000    1.485000
    42  Sc    c    -3.150514    1.822334   12.884519    0.000000    3.000000
    43  Cl    c    -1.156201   -1.989735    1.463564    0.000000    1.485000
    44  Cl    c    -2.295517    3.636168   11.383081    0.000000    1.485000
    45  Cl    c    -5.139232   -5.272740   11.383125    0.000000    1.485000
    46  Cl    c    -0.866150   -1.818240   14.378469    0.000000    1.485000
    47  Sc    c    -3.150291   -5.457712   12.897811    0.000000    3.000000
    48  Cl    c     4.299384    0.165238   11.394715    0.000000    1.485000
    49  Cl    c    -2.294096   -7.270405   11.395973    0.000000    1.485000
    50  Cl    c     4.296537   -3.799728   11.394741    0.000000    1.485000
    51  Cl    c    -7.139739    1.857047    7.909054    0.000000    1.485000
    52  Cl    c    -1.184951    5.294636    7.909115    0.000000    1.485000
    53  Cl    c    -3.981330   -0.003412    1.469106    0.000000    1.485000
    54  Cl    c    -1.145601    1.659637   14.375553    0.000000    1.485000
    55  Cl    c    -1.144297    1.984521    1.458291    0.000000    1.485000
    56  Cl    c    -4.292652   -3.453620    1.468060    0.000000    1.485000
    57  Sc    c    -6.297505    0.000259   12.884804    0.000000    3.000000
    58  Cl    c     1.988684   -3.447075    1.487922    0.000000    1.485000
    59  Cl    c    -7.448156   -5.590476    7.953700    0.000000    1.485000
    60  Cl    c    -4.283978    0.154416   14.367757    0.000000    1.485000
    61  Cl    c     5.419179    1.837158    7.954157    0.000000    1.485000
    62  Cl    c     2.289062    0.004384    1.468208    0.000000    1.485000
    63  Sc    c    -6.298154   -3.637160   12.889956    0.000000    3.000000
    64  Sc    c     3.154457    1.818418   12.889444    0.000000    3.000000
    65  Cl    c     2.012124    0.157792   14.378662    0.000000    1.485000
    66  Cl    c    -0.854903   -5.447961    1.476692    0.000000    1.485000
    67  Cl    c    -0.849220   -9.125247    7.916994    0.000000    1.485000
    68  Cl    c     5.179501   -5.644636    7.917757    0.000000    1.485000
    69  Cl    c    -1.143453   -5.289819   14.386020    0.000000    1.485000
    70  Sc    c    -6.320142    3.688189    6.398241    0.000000    3.000000
    71  Sc    c    -3.179815    5.500296    6.397227    0.000000    3.000000
    72  Cl    c    -4.287651   -3.788130   14.377011    0.000000    1.485000
    73  Cl    c     2.012461   -3.786950   14.376583    0.000000    1.485000
    74  Sc    c     3.152943   -5.453115   12.890843    0.000000    3.000000
    75  Sc    c    -6.318634   -7.283166    6.495185    0.000000    3.000000
    76  Sc    c     6.320047    0.013240    6.494656    0.000000    3.000000
    77  Cl    c    -8.471385   -0.127216    4.889413    0.000000    1.485000
    78  Cl    c     1.198730    5.453133    4.889054    0.000000    1.485000
    79  Sc    c    -3.149638   -1.818382   -0.050037    0.000000    3.000000
    80  Cl    c    -8.294520    0.172688   11.383010    0.000000    1.485000
    81  Cl    c     3.995166    3.634530   11.383299    0.000000    1.485000
    82  Cl    c    -8.611684   -3.646992    4.940456    0.000000    1.485000
    83  Sc    c     0.003441   -3.639895   -0.029712    0.000000    3.000000
    84  Cl    c     4.318231    3.816434    4.940599    0.000000    1.485000
    85  Cl    c    -8.296353   -3.808238   11.390069    0.000000    1.485000
    86  Cl    c     0.891616   -9.174007    4.922406    0.000000    1.485000
    87  Cl    c     4.352829   -7.177318    4.923017    0.000000    1.485000
    88  Cl    c     1.146394    5.618206   11.389457    0.000000    1.485000
    89  Sc    c    -9.516751   -1.833300    6.411522    0.000000    3.000000
    90  Sc    c     3.199357    5.507668    6.410381    0.000000    3.000000
    91  Cl    c     3.998362   -7.269542   11.388239    0.000000    1.485000
    92  Cl    c    -5.169901    5.321148    4.889498    0.000000    1.485000
    93  Cl    c     1.143373   -9.251037   11.397541    0.000000    1.485000
    94  Cl    c    -4.293653    3.454957    1.476224    0.000000    1.485000
    95  Cl    c     1.992311    3.455868    1.478356    0.000000    1.485000
    96  Sc    c    -3.148798    1.821634   -0.038491    0.000000    3.000000
    97  Cl    c    -4.015900    3.637821   14.372496    0.000000    1.485000
    98  Cl    c    -7.153520   -1.815861   14.379915    0.000000    1.485000
    99  Sc    c    -3.148540    5.457889   12.883811    0.000000    3.000000
   100  Cl    c    -7.436413   -1.979469    1.472448    0.000000    1.485000
   101  Cl    c    -5.150214    5.620997   11.386576    0.000000    1.485000
   102  Cl    c     5.140856   -1.985398    1.487255    0.000000    1.485000
   103  Sc    c     3.150720   -1.817179   -0.023943    0.000000    3.000000
   104  Cl    c     7.146247   -1.816743   11.390114    0.000000    1.485000
   105  Cl    c     2.274021    3.632161   14.372933    0.000000    1.485000
   106  Cl    c    -4.014213   -7.273329   14.386499    0.000000    1.485000
   107  Cl    c    -5.424849   -9.076505    4.996081    0.000000    1.485000
   108  Cl    c     7.426770   -1.657816    4.996435    0.000000    1.485000
   109  Sc    c     6.302334   -0.000711   12.896579    0.000000    3.000000
   110  Cl    c    -4.289068   -7.428798    1.485442    0.000000    1.485000
   111  Cl    c     2.001159   -7.431491    1.487717    0.000000    1.485000
   112  Sc    c    -3.147982   -9.092594   12.895132    0.000000    3.000000
   113  Sc    c     6.300752   -3.634932   12.893920    0.000000    3.000000
   114  Sc    c    -9.458956   -5.461036    6.454775    0.000000    3.000000
   115  Sc    c     6.312242    3.643920    6.455899    0.000000    3.000000
   116  Cl    c     5.425813   -1.817938   14.380926    0.000000    1.485000
   117  Cl    c     2.276679   -7.265741   14.378328    0.000000    1.485000
   118  Cl    c    -5.151847   -9.252711   11.400560    0.000000    1.485000
   119  Cl    c    -7.452844    5.319401    7.915433    0.000000    1.485000
   120  Cl    c    -4.026212    7.296054    7.915460    0.000000    1.485000
   121  Cl    c   -10.301406   -3.639155    7.954267    0.000000    1.485000
   122  Cl    c     5.155016    5.285081    7.954099    0.000000    1.485000
   123  Cl    c    -8.337972    3.819220    4.927709    0.000000    1.485000
   124  Cl    c    -2.284413    7.314126    4.927791    0.000000    1.485000
   125  Cl    c    -1.995080    7.095593   11.379353    0.000000    1.485000
   126  Sc    c     0.007007  -10.967883    6.440686    0.000000    3.000000
   127  Cl    c    -8.289360   -7.100241    4.964412    0.000000    1.485000
   128  Sc    c     6.348144   -7.307331    6.442196    0.000000    3.000000
   129  Cl    c     7.146723    1.811995    4.964554    0.000000    1.485000
   130  Cl    c   -10.607366   -0.167221    7.926333    0.000000    1.485000
   131  Cl    c     2.301527    7.284591    7.925839    0.000000    1.485000
   132  Cl    c    -0.855085    5.446512    1.471991    0.000000    1.485000
   133  Sc    c     0.003549    3.641037   -0.036729    0.000000    3.000000
   134  Cl    c    -7.135936   -5.446155    1.492184    0.000000    1.485000
   135  Cl    c    -7.160651   -9.105360    7.984537    0.000000    1.485000
   136  Cl    c     8.318718   -0.168041    7.984702    0.000000    1.485000
   137  Cl    c    -2.284782    0.004612   -1.530100    0.000000    1.485000
   138  Cl    c    -1.997916   -3.477683   -1.526040    0.000000    1.485000
   139  Cl    c    -7.430775    1.663800   14.371422    0.000000    1.485000
   140  Sc    c    -6.301920   -3.636637   -0.025588    0.000000    3.000000
   141  Sc    c     3.152746    1.822132   -0.029023    0.000000    3.000000
   142  Cl    c     5.153363    1.654112   14.386079    0.000000    1.485000
   143  Cl    c    -7.435744    1.978525    1.476205    0.000000    1.485000
   144  Cl    c     1.141828   -1.974997   -1.512718    0.000000    1.485000
   145  Sc    c     3.148409    5.453372   12.888778    0.000000    3.000000
   146  Cl    c     5.143694    1.987192    1.481048    0.000000    1.485000
   147  Cl    c    -1.149842   -8.907594    1.497947    0.000000    1.485000
   148  Cl    c    -1.139235    5.604605   14.370791    0.000000    1.485000
   149  Cl    c    -8.584861    3.637115   11.390000    0.000000    1.485000
   150  Cl    c    -7.433379   -5.295083   14.381399    0.000000    1.485000
   151  Sc    c     0.002357   -7.275975   -0.014000    0.000000    3.000000
   152  Cl    c     5.152173   -5.285805   14.387560    0.000000    1.485000
   153  Cl    c    -1.997122  -10.732619   11.392060    0.000000    1.485000
   154  Cl    c     7.443317    1.651695   11.399699    0.000000    1.485000
   155  Cl    c    -2.004878  -11.092084    4.955457    0.000000    1.485000
   156  Cl    c     7.460603   -5.627351    4.955784    0.000000    1.485000
   157  Cl    c    -4.282856  -11.071008    7.951496    0.000000    1.485000
   158  Cl    c     8.582526   -3.644346    7.951591    0.000000    1.485000
   159  Cl    c     5.431322   -5.450026    1.490045    0.000000    1.485000
   160  Cl    c     2.007991  -11.089255    7.940257    0.000000    1.485000
   161  Cl    c     5.452805   -9.101854    7.940554    0.000000    1.485000
   162  Cl    c    -8.583175   -7.271270   11.399218    0.000000    1.485000
   163  Sc    c     3.148245   -9.087473   12.892482    0.000000    3.000000
   164  Cl    c     7.443972   -5.286265   11.398182    0.000000    1.485000
   165  Cl    c    -1.139108   -9.240258   14.382759    0.000000    1.485000
   166  Cl    c    -2.291545    0.000430   17.859597    0.000000    1.485000
   167  Cl    c    -1.999864   -3.465154   17.858891    0.000000    1.485000
   168  Cl    c    -5.163044   -1.982601   -1.524768    0.000000    1.485000
   169  Cl    c     1.145258   -1.984091   17.860386    0.000000    1.485000
   170  Sc    c    -9.444264    1.820184   12.885952    0.000000    3.000000
   171  Sc    c     0.000965    7.271540   12.886500    0.000000    3.000000
   172  Cl    c     1.145296    1.977243   -1.519562    0.000000    1.485000
   173  Cl    c     0.869920   -5.461322   -1.509483    0.000000    1.485000
   174  Sc    c    -9.445278   -5.455151   12.894210    0.000000    3.000000
   175  Sc    c     0.001457  -10.905129   12.895958    0.000000    3.000000
   176  Cl    c   -11.535685   -1.669646    4.948063    0.000000    1.485000
   177  Cl    c     4.066936    7.338593    4.947694    0.000000    1.485000
   178  Sc    c    -6.297082  -10.912149    6.470715    0.000000    3.000000
   179  Sc    c     9.452125   -1.819785    6.471857    0.000000    3.000000
   180  Cl    c    -2.002282    3.474853   -1.526488    0.000000    1.485000
   181  Cl    c    -5.148420   -1.985125   17.859321    0.000000    1.485000
   182  Sc    c    -6.299377    3.635757   -0.020894    0.000000    3.000000
   183  Cl    c    -5.162238    1.975036   -1.515752    0.000000    1.485000
   184  Cl    c     4.009754   -0.000420   -1.516242    0.000000    1.485000
   185  Cl    c     1.145963    1.983346   17.860358    0.000000    1.485000
   186  Cl    c   -10.586819    3.801851    7.929177    0.000000    1.485000
   187  Cl    c    -1.144625    9.252881    7.928827    0.000000    1.485000
   188  Cl    c     0.854940   -5.449963   17.859082    0.000000    1.485000
   189  Cl    c     4.297060    7.099498   11.391299    0.000000    1.485000
   190  Cl    c   -10.590530   -7.114674    7.952490    0.000000    1.485000
   191  Cl    c     8.310928    3.797746    7.952343    0.000000    1.485000
   192  Cl    c    -1.156508  -12.585055    7.953960    0.000000    1.485000
   193  Cl    c     8.331288   -7.107738    7.954129    0.000000    1.485000
   194  Sc    c    -6.295364   -7.271601   -0.008860    0.000000    3.000000
   195  Sc    c    -9.474521    5.475197    6.434338    0.000000    3.000000
   196  Sc    c    -3.150742    9.125601    6.435243    0.000000    3.000000
   197  Cl    c    -5.427427   -5.456506   -1.504685    0.000000    1.485000
   198  Cl    c     4.291494   -3.482463   -1.502317    0.000000    1.485000
   199  Sc    c    -3.147302   -9.089299   -0.006527    0.000000    3.000000
   200  Sc    c     6.297629   -3.636828   -0.006312    0.000000    3.000000
   201  Cl    c    -2.007577   -7.429440   -1.499394    0.000000    1.485000
   202  Cl    c   -11.729652   -1.817526   11.398754    0.000000    1.485000
   203  Cl    c     4.295714  -10.736057   11.396904    0.000000    1.485000
   204  Cl    c    -2.000523    3.464669   17.857931    0.000000    1.485000
   205  Cl    c    -7.142793    5.447268    1.488675    0.000000    1.485000
   206  Cl    c   -10.287444   -0.000260    1.493171    0.000000    1.485000
   207  Cl    c     4.300672  -11.083683    4.966648    0.000000    1.485000
   208  Cl    c    -5.147824    1.983923   17.859511    0.000000    1.485000
   209  Cl    c    -4.290409    7.108017   14.379387    0.000000    1.485000
   210  Cl    c     2.000384    7.100255   14.385111    0.000000    1.485000
   211  Cl    c   -11.444629    1.645344   11.389209    0.000000    1.485000
   212  Cl    c     4.001102    0.000622   17.858250    0.000000    1.485000
   213  Sc    c    -3.159126  -12.738718    6.453913    0.000000    3.000000
   214  Sc    c     9.464695   -5.450597    6.452846    0.000000    3.000000
   215  Cl    c   -11.457597   -5.623608    4.959117    0.000000    1.485000
   216  Cl    c     7.451499    5.292975    4.958874    0.000000    1.485000
   217  Sc    c    -6.296953    7.272379   12.886845    0.000000    3.000000
   218  Sc    c    -9.449421   -1.816144   -0.016191    0.000000    3.000000
   219  Cl    c     0.858000    9.089974   11.393238    0.000000    1.485000
   220  Cl    c   -11.443502   -5.281622   11.394065    0.000000    1.485000
   221  Cl    c   -11.748865    1.816812    4.960220    0.000000    1.485000
   222  Cl    c     1.155128    9.265731    4.959633    0.000000    1.485000
   223  Cl    c    -5.436989   -5.450375   17.860617    0.000000    1.485000
   224  Cl    c     4.292921   -3.467267   17.860156    0.000000    1.485000
   225  Cl    c    -4.287853    7.426966    1.481684    0.000000    1.485000
   226  Cl    c     2.003500    7.429473    1.481689    0.000000    1.485000
   227  Cl    c   -10.582303   -3.467898    1.487390    0.000000    1.485000
   228  Cl    c     1.163670  -12.613650    4.954137    0.000000    1.485000
   229  Cl    c     7.194963   -9.130960    4.954314    0.000000    1.485000
   230  Cl    c    -7.439262   -8.912762    1.497551    0.000000    1.485000
   231  Cl    c     8.290796   -3.460203    1.499622    0.000000    1.485000
   232  Cl    c    -2.002872   -7.433033   17.860896    0.000000    1.485000
   233  Cl    c     5.145208   -8.910881    1.503710    0.000000    1.485000
   234  Cl    c    -7.430196    5.606486   14.375446    0.000000    1.485000
   235  Cl    c   -10.574494    0.157596   14.378505    0.000000    1.485000
   236  Cl    c     5.431914    5.451022    1.485034    0.000000    1.485000
   237  Cl    c     5.152346    5.604730   14.381324    0.000000    1.485000
   238  Cl    c    -4.003079  -10.901198    1.495287    0.000000    1.485000
   239  Cl    c     8.303015    0.161629   14.391350    0.000000    1.485000
   240  Sc    c   -12.633155    0.011175    6.454565    0.000000    3.000000
   241  Cl    c    -4.290940  -10.740957   14.392398    0.000000    1.485000
   242  Sc    c     3.160224    9.128842    6.455138    0.000000    3.000000
   243  Sc    c    -3.147306   -1.816999   19.358248    0.000000    3.000000
   244  Cl    c     2.002547  -10.733094   14.392610    0.000000    1.485000
   245  Cl    c   -10.577567   -3.790327   14.382902    0.000000    1.485000
   246  Sc    c     3.150997   -9.090366   -0.002091    0.000000    3.000000
   247  Cl    c     8.301567   -3.793679   14.389381    0.000000    1.485000
   248  Sc    c     0.000485   -3.634148   19.359796    0.000000    3.000000
   249  Sc    c    -6.296680  -10.906376   12.899143    0.000000    3.000000
   250  Cl    c     8.577278    0.000978    1.490520    0.000000    1.485000
   251  Cl    c     7.441253    5.613834   11.401619    0.000000    1.485000
   252  Cl    c     2.287478  -10.902290    1.495854    0.000000    1.485000
   253  Cl    c    -8.295742    7.098219   11.386383    0.000000    1.485000
   254  Cl    c     0.858771  -12.721513   11.400159    0.000000    1.485000
   255  Cl    c    -7.433493   -9.241863   14.386903    0.000000    1.485000
   256  Cl    c     5.152167   -9.239043   14.385752    0.000000    1.485000
   257  Cl    c     0.868466    5.463106   -1.516795    0.000000    1.485000
   258  Cl    c    -8.308447   -3.472026   -1.511293    0.000000    1.485000
   259  Sc    c    -9.447039    1.817790   -0.013547    0.000000    3.000000
   260  Cl    c    -8.596411    7.282901    4.941377    0.000000    1.485000
   261  Cl    c    -5.154677    9.268645    4.941275    0.000000    1.485000
   262  Sc    c     0.002114    7.275623   -0.016783    0.000000    3.000000
   263  Sc    c    -9.442778    5.454141   12.890501    0.000000    3.000000
   264  Sc    c     3.166079  -12.747715    6.458003    0.000000    3.000000
   265  Sc    c     6.309783  -10.933063    6.456917    0.000000    3.000000
   266  Cl    c     4.296332    3.482143   -1.510986    0.000000    1.485000
   267  Cl    c    -5.156315  -12.545128    4.953894    0.000000    1.485000
   268  Cl    c    10.295609   -3.623442    4.953827    0.000000    1.485000
   269  Cl    c     7.438817   -9.248881   11.403770    0.000000    1.485000
   270  Cl    c    -5.436052    9.089851   11.394006    0.000000    1.485000
   271  Sc    c     6.299964    3.639450   -0.011769    0.000000    3.000000
   272  Cl    c    -8.579731    0.000623   -1.505200    0.000000    1.485000
   273  Cl    c    -8.294143  -10.733734   11.396399    0.000000    1.485000
   274  Cl    c     1.148060   -8.931409   -1.500416    0.000000    1.485000
   275  Sc    c    -3.147054    1.817674   19.359138    0.000000    3.000000
   276  Cl    c    -8.301653  -11.051902    4.977855    0.000000    1.485000
   277  Cl    c    10.574472   -0.154066    4.977693    0.000000    1.485000
   278  Sc    c    -9.442881   -9.088963   12.897810    0.000000    3.000000
   279  Sc    c     9.447583    1.818764   12.898753    0.000000    3.000000
   280  Sc    c     6.296107   -7.270969   -0.001879    0.000000    3.000000
   281  Sc    c     3.148189   -1.816875   19.358107    0.000000    3.000000
   282  Cl    c     4.287864   -7.428352   -1.492355    0.000000    1.485000
   283  Cl    c    -1.149043    8.910303    1.491705    0.000000    1.485000
   284  Sc    c     9.446558   -5.452979   12.899246    0.000000    3.000000
   285  Cl    c   -10.297124    3.634283   14.385660    0.000000    1.485000
   286  Cl    c     0.856002    5.451633   17.859239    0.000000    1.485000
   287  Cl    c    10.588249    0.162937   11.404988    0.000000    1.485000
   288  Cl    c    -5.434435  -12.720793   11.403336    0.000000    1.485000
   289  Cl    c    -8.294612   -3.465932   17.858838    0.000000    1.485000
   290  Cl    c     4.292443    3.466951   17.860016    0.000000    1.485000
   291  Cl    c    10.587234   -3.797462   11.404662    0.000000    1.485000
   292  Cl    c   -10.583266    3.468639    1.488109    0.000000    1.485000
   293  Cl    c    -5.428015    5.453126   -1.505470    0.000000    1.485000
   294  Cl    c     8.291584    3.463130    1.496624    0.000000    1.485000
   295  Cl    c    -8.582937    0.000124   17.861231    0.000000    1.485000
   296  Cl    c    -0.867217    9.081769   14.381721    0.000000    1.485000
   297  Cl    c    -5.149413   -8.922746   -1.502030    0.000000    1.485000
   298  Cl    c    -7.437083    9.249046    7.926872    0.000000    1.485000
   299  Cl    c   -10.299382   -7.269455   14.392739    0.000000    1.485000
   300  Cl    c   -13.752031   -1.648621    7.957870    0.000000    1.485000
   301  Cl    c     1.146573   -8.916770   17.858779    0.000000    1.485000
   302  Cl    c     5.157867    9.268487    7.957236    0.000000    1.485000
   303  Sc    c   -12.589503   -0.000225   12.895437    0.000000    3.000000
   304  Cl    c    -7.442700  -12.563172    7.962109    0.000000    1.485000
   305  Cl    c    11.455627   -1.652681    7.961910    0.000000    1.485000
   306  Cl    c     5.158210  -12.567660    7.964950    0.000000    1.485000
   307  Sc    c   -12.589980   -3.634045   12.896344    0.000000    3.000000
   308  Sc    c     6.296852    7.268451   12.895274    0.000000    3.000000
   309  Sc    c   -12.606491    3.640882    6.451225    0.000000    3.000000
   310  Sc    c     0.003718   10.921017    6.449569    0.000000    3.000000
   311  Sc    c     0.000505    3.634858   19.357615    0.000000    3.000000
   312  Sc    c    -6.294782   -3.634335   19.359243    0.000000    3.000000
   313  Sc    c     3.148041    1.817496   19.359263    0.000000    3.000000
   314  Cl    c   -11.473940    5.289706    4.940953    0.000000    1.485000
   315  Cl    c    -1.991273   10.763902    4.940513    0.000000    1.485000
   316  Cl    c     7.433810   -1.974903   -1.494830    0.000000    1.485000
   317  Cl    c   -10.311191    7.288454    7.941368    0.000000    1.485000
   318  Cl    c    -4.303346   10.757351    7.941131    0.000000    1.485000
   319  Cl    c   -13.452695    1.831682    7.964276    0.000000    1.485000
   320  Cl    c     1.992952   10.749551    7.963644    0.000000    1.485000
   321  Cl    c     4.291093   -7.432210   17.861498    0.000000    1.485000
   322  Cl    c   -10.583925   -7.429912    1.494146    0.000000    1.485000
   323  Cl    c     8.295901   -7.430749    1.497247    0.000000    1.485000
   324  Sc    c   -12.600968   -7.277789    6.459131    0.000000    3.000000
   325  Sc    c     9.456463    5.456906    6.457750    0.000000    3.000000
   326  Sc    c     0.000233   -7.268554   19.357652    0.000000    3.000000
   327  Cl    c    -8.303694    3.469141   -1.510967    0.000000    1.485000
   328  Cl    c     8.574076    3.632711   14.388841    0.000000    1.485000
   329  Cl    c    -0.856983   -1.817095   -4.967675    0.000000    1.485000
   330  Cl    c    -0.864462  -12.717720   14.390046    0.000000    1.485000
   331  Sc    c     6.296127  -10.902953   12.899648    0.000000    3.000000
   332  Sc    c    -6.294959    7.270013   -0.010788    0.000000    3.000000
   333  Cl    c    -1.143779  -12.880759    1.495158    0.000000    1.485000
   334  Cl    c    -5.436263    5.451375   17.860437    0.000000    1.485000
   335  Cl    c    -1.141927   -1.976728   20.850689    0.000000    1.485000
   336  Cl    c    -5.147557   -8.916147   17.858263    0.000000    1.485000
   337  Cl    c     8.574166   -7.267079   14.389506    0.000000    1.485000
   338  Cl    c   -11.446796    5.618016   11.397433    0.000000    1.485000
   339  Cl    c    -2.006098    7.428981   -1.504908    0.000000    1.485000
   340  Cl    c    10.297781    3.636116   11.399115    0.000000    1.485000
   341  Cl    c     7.154916   -5.454545   -1.498853    0.000000    1.485000
   342  Cl    c    -8.304050   -7.427163   -1.494221    0.000000    1.485000
   343  Cl    c     7.438171   -1.982131   17.861399    0.000000    1.485000
   344  Cl    c   -13.732131   -5.613804    7.950282    0.000000    1.485000
   345  Cl    c     8.580894    7.267630    7.950008    0.000000    1.485000
   346  Cl    c    -2.002703   11.067974   11.400410    0.000000    1.485000
   347  Sc    c     9.442562   -1.816175   -0.003111    0.000000    3.000000
   348  Cl    c    -4.024154  -14.551959    7.946002    0.000000    1.485000
   349  Cl    c    11.466833   -5.607475    7.946046    0.000000    1.485000
   350  Cl    c     7.437461    1.975985   -1.497950    0.000000    1.485000
   351  Cl    c    -2.280346  -10.905463   -1.494859    0.000000    1.485000
   352  Cl    c    10.298130   -7.269842   11.399942    0.000000    1.485000
   353  Cl    c    -1.146476    1.648532   -4.966199    0.000000    1.485000
   354  Cl    c   -11.724799   -9.087606    4.966331    0.000000    1.485000
   355  Cl    c    10.586551    3.792785    4.966149    0.000000    1.485000
   356  Cl    c   -11.446225   -9.251055   11.403670    0.000000    1.485000
   357  Cl    c    -8.295354    3.465102   17.858517    0.000000    1.485000
   358  Cl    c    -2.296412  -14.547439    4.953866    0.000000    1.485000
   359  Cl    c    10.600519   -7.102503    4.953980    0.000000    1.485000
   360  Cl    c   -10.586034  -11.063230    7.952926    0.000000    1.485000
   361  Cl    c    11.727293    1.818292    7.952743    0.000000    1.485000
   362  Cl    c    -4.290348    0.165857   -4.967618    0.000000    1.485000
   363  Cl    c     2.000519    0.166617   -4.965153    0.000000    1.485000
   364  Cl    c    -1.145784   -5.281018   -4.963706    0.000000    1.485000
   365  Cl    c     2.292920  -14.553324    7.956335    0.000000    1.485000
   366  Cl    c     8.309230  -11.079104    7.956551    0.000000    1.485000
   367  Cl    c    -4.009877   -0.000094   20.851098    0.000000    1.485000
   368  Cl    c    -4.291199   -3.798338   -4.966815    0.000000    1.485000
   369  Cl    c     2.000045   -3.798847   -4.964462    0.000000    1.485000
   370  Sc    c    -3.147802    9.087030   -0.011267    0.000000    3.000000
   371  Cl    c    -1.140565    1.977325   20.849915    0.000000    1.485000
   372  Cl    c    -4.288374   -3.473160   20.850877    0.000000    1.485000
   373  Cl    c     2.005544   -3.471721   20.851862    0.000000    1.485000
   374  Cl    c    -2.002116    7.432949   17.860941    0.000000    1.485000
   375  Cl    c     2.282637   -0.000292   20.850076    0.000000    1.485000
   376  Cl    c    -0.863822   -5.451415   20.850702    0.000000    1.485000
   377  Cl    c     7.149517   -5.450359   17.858955    0.000000    1.485000
   378  Sc    c     0.000605   10.905439   12.896306    0.000000    3.000000
   379  Cl    c    -8.297281   -7.433312   17.861128    0.000000    1.485000
   380  Cl    c    -2.003495  -14.700337   11.405843    0.000000    1.485000
   381  Sc    c    -9.449477    9.103332    6.440888    0.000000    3.000000
   382  Sc    c    -6.305226   10.918283    6.439601    0.000000    3.000000
   383  Sc    c    -6.294608    3.634634   19.357413    0.000000    3.000000
   384  Cl    c     7.438918    1.981749   17.861727    0.000000    1.485000
   385  Sc    c    -9.443718   -9.086949    0.000155    0.000000    3.000000
   386  Sc    c     9.443868    1.817577   -0.003364    0.000000    3.000000
   387  Cl    c    -2.289692  -10.900549   17.860167    0.000000    1.485000
   388  Sc    c     9.444067    5.452180   12.900889    0.000000    3.000000
   389  Sc    c    -3.147074  -12.723002   -0.001068    0.000000    3.000000
   390  Sc    c    -6.294818   -7.268577   19.357828    0.000000    3.000000
   391  Cl    c   -14.637924   -0.155373    4.967322    0.000000    1.485000
   392  Sc    c    -3.147404   -9.085177   19.358764    0.000000    3.000000
   393  Cl    c     4.306125   10.781248    4.966645    0.000000    1.485000
   394  Sc    c     6.295338   -3.634219   19.359053    0.000000    3.000000
   395  Cl    c    -7.438675    8.914964    1.491629    0.000000    1.485000
   396  Cl    c     5.145423    8.913889    1.498096    0.000000    1.485000
   397  Cl    c    -7.155691    9.083656   14.386489    0.000000    1.485000
   398  Sc    c     0.001051  -14.538815   12.900115    0.000000    3.000000
   399  Cl    c   -13.440266   -1.816470   14.395494    0.000000    1.485000
   400  Sc    c     9.443072   -9.086447   12.900390    0.000000    3.000000
   401  Sc    c    -9.445053  -12.721294    6.460984    0.000000    3.000000
   402  Sc    c    12.592710    0.002059    6.459575    0.000000    3.000000
   403  Cl    c   -11.456565   -1.980756   -1.501825    0.000000    1.485000
   404  Sc    c     3.150618    9.089750   -0.007658    0.000000    3.000000
   405  Cl    c   -14.592887    0.165271   11.401516    0.000000    1.485000
   406  Cl    c     7.151262    9.086973   11.400180    0.000000    1.485000
   407  Sc    c   -12.593665   -3.636712   -0.002041    0.000000    3.000000
   408  Sc    c     6.297040    7.273066   -0.005218    0.000000    3.000000
   409  Cl    c   -14.593705   -3.799484   11.403133    0.000000    1.485000
   410  Cl    c   -13.730689   -1.981037    1.494592    0.000000    1.485000
   411  Cl    c     4.290736    7.429778   -1.498200    0.000000    1.485000
   412  Cl    c    11.441238   -1.981936    1.496872    0.000000    1.485000
   413  Sc    c    -9.442002   -1.817152   19.357997    0.000000    3.000000
   414  Cl    c     5.425827    9.080203   14.388596    0.000000    1.485000
   415  Cl    c   -14.876815   -3.631589    4.971455    0.000000    1.485000
   416  Cl    c     7.437631    9.250576    4.970983    0.000000    1.485000
   417  Cl    c    -4.002217    3.631637   -4.964157    0.000000    1.485000
   418  Cl    c     4.012816  -10.906981   -1.493165    0.000000    1.485000
   419  Cl    c    -7.147152   -1.817316   -4.962828    0.000000    1.485000
   420  Cl    c    -7.155903  -12.720605   14.394960    0.000000    1.485000
   421  Cl    c     4.026871  -14.562488    4.965144    0.000000    1.485000
   422  Cl    c     7.451929  -12.586295    4.965312    0.000000    1.485000
   423  Cl    c     4.291469   11.066064   11.405725    0.000000    1.485000
   424  Cl    c    -4.289410    3.473452   20.850921    0.000000    1.485000
   425  Sc    c     3.148545  -12.723614    0.002098    0.000000    3.000000
   426  Cl    c     2.004160    3.472166   20.851919    0.000000    1.485000
   427  Cl    c     1.147954    8.929377   -1.505870    0.000000    1.485000
   428  Cl    c     2.287821    3.631619   -4.963811    0.000000    1.485000
   429  Cl    c     7.152297  -12.720370   11.403937    0.000000    1.485000
   430  Cl    c    -4.002869   -7.266642   -4.962337    0.000000    1.485000
   431  Cl    c   -11.443664   -1.984245   17.860661    0.000000    1.485000
   432  Cl    c   -13.738176    5.298860    7.946545    0.000000    1.485000
   433  Cl    c    -0.866489   12.728994    7.946213    0.000000    1.485000
   434  Sc    c     3.147769   -9.084891   19.358830    0.000000    3.000000
   435  Cl    c    -4.005302   10.898559    1.490317    0.000000    1.485000
   436  Cl    c   -13.439169   -5.452396    1.502157    0.000000    1.485000
   437  Cl    c   -13.449674   -9.093889    7.958200    0.000000    1.485000
   438  Cl    c    11.452845    5.284333    7.958015    0.000000    1.485000
   439  Cl    c   -11.453697    1.978721   -1.500812    0.000000    1.485000
   440  Cl    c    -7.437273  -12.881470    1.494686    0.000000    1.485000
   441  Cl    c   -10.580394    7.106427   14.388313    0.000000    1.485000
   442  Cl    c     7.158472    5.457761   -1.502752    0.000000    1.485000
   443  Cl    c    -7.435591   -1.976515   20.850353    0.000000    1.485000
   444  Cl    c     5.150196  -12.883303    1.499433    0.000000    1.485000
   445  Cl    c     5.152188   -1.977769   20.851486    0.000000    1.485000
   446  Cl    c     8.293946    7.100252   14.396760    0.000000    1.485000
   447  Sc    c    -6.294259   10.905419   12.896109    0.000000    3.000000
   448  Cl    c    11.722401   -1.817640   14.393239    0.000000    1.485000
   449  Cl    c     5.434070   -1.817214   -4.961541    0.000000    1.485000
   450  Cl    c     2.287723   -7.266651   -4.961806    0.000000    1.485000
   451  Cl    c     5.428100  -12.716120   14.393112    0.000000    1.485000
   452  Cl    c     2.286613   10.900788    1.491185    0.000000    1.485000
   453  Sc    c     0.000457    0.000089   -6.465576    0.000000    3.000000
   454  Cl    c   -10.295028  -10.902877    1.500121    0.000000    1.485000
   455  Cl    c   -13.725000    1.657469   14.389490    0.000000    1.485000
   456  Cl    c     4.291413    7.431804   17.862955    0.000000    1.485000
   457  Sc    c     0.000443   -3.634642   -6.465778    0.000000    3.000000
   458  Cl    c    -4.288722   -7.426850   20.850005    0.000000    1.485000
   459  Cl    c   -10.582349    7.429707    1.489781    0.000000    1.485000
   460  Cl    c   -13.728065    1.981235    1.493937    0.000000    1.485000
   461  Cl    c     2.005296   -7.426834   20.850262    0.000000    1.485000
   462  Sc    c    -9.441409    1.816949   19.359225    0.000000    3.000000
   463  Sc    c     0.000154    7.268988   19.358781    0.000000    3.000000
   464  Cl    c    11.446296    1.653131   14.397428    0.000000    1.485000
   465  Cl    c    -8.302763   10.746809    4.938388    0.000000    1.485000
   466  Cl    c     4.004302  -10.900784   17.860281    0.000000    1.485000
   467  Cl    c     8.297736    7.432357    1.492806    0.000000    1.485000
   468  Cl    c    11.443428    1.982590    1.495327    0.000000    1.485000
   469  Cl    c    -4.286662   11.057336   14.386720    0.000000    1.485000
   470  Cl    c     4.290612  -14.699581   11.408801    0.000000    1.485000
   471  Cl    c    -4.294021  -14.367538    1.500059    0.000000    1.485000
   472  Cl    c     2.005472   11.057783   14.389449    0.000000    1.485000
   473  Cl    c     1.999351  -14.366788    1.503713    0.000000    1.485000
   474  Cl    c   -13.726018   -5.289575   14.392401    0.000000    1.485000
   475  Cl    c   -10.582532  -10.740501   14.395036    0.000000    1.485000
   476  Cl    c   -11.724002   -5.452241   -1.492607    0.000000    1.485000
   477  Sc    c   -15.759598   -1.824333    6.465404    0.000000    3.000000
   478  Sc    c     6.312916   10.919032    6.463742    0.000000    3.000000
   479  Sc    c     6.295351    3.634516   19.358058    0.000000    3.000000
   480  Cl    c    11.445536   -5.286110   14.397716    0.000000    1.485000
   481  Cl    c     8.295087  -10.733591   14.398909    0.000000    1.485000
   482  Cl    c    -5.149890    8.919463   -1.507274    0.000000    1.485000
   483  Cl    c    -7.437080    1.650668   -4.963541    0.000000    1.485000
   484  Cl    c     7.437639   -8.927033   -1.492147    0.000000    1.485000
   485  Cl    c     5.145933    1.648731   -4.959607    0.000000    1.485000
   486  Cl    c     1.145862    8.917557   17.859775    0.000000    1.485000
   487  Sc    c    12.592158   -0.000841   12.903338    0.000000    3.000000
   488  Cl    c    -1.143954    5.614119   -4.963937    0.000000    1.485000
   489  Cl    c    -7.436587   -5.283544   -4.962547    0.000000    1.485000
   490  Cl    c   -11.442810    1.982765   17.861292    0.000000    1.485000
   491  Cl    c    -0.864064    5.450545   20.850363    0.000000    1.485000
   492  Sc    c    -6.293686  -14.539289   12.900927    0.000000    3.000000
   493  Cl    c   -14.610259    3.796876    4.959420    0.000000    1.485000
   494  Sc    c    12.591628   -3.634061   12.901983    0.000000    3.000000
   495  Cl    c     0.870276   12.735410    4.959071    0.000000    1.485000
   496  Cl    c     5.146905   -5.281468   -4.957805    0.000000    1.485000
   497  Cl    c    -7.155815   -5.451410   20.852285    0.000000    1.485000
   498  Sc    c   -12.590942  -10.908134    6.456829    0.000000    3.000000
   499  Cl    c     7.149891    5.451862   17.860011    0.000000    1.485000
   500  Cl    c     1.148213   12.554639   11.400722    0.000000    1.485000
   501  Sc    c    12.595442    3.633066    6.457865    0.000000    3.000000
   502  Cl    c   -14.596478   -7.103682    4.957444    0.000000    1.485000
   503  Sc    c     6.294989   -7.268192   19.357843    0.000000    3.000000
   504  Cl    c    10.303457    7.272973    4.957225    0.000000    1.485000
   505  Cl    c     1.141748  -12.878110   -1.489493    0.000000    1.485000
   506  Cl    c    -7.433974    1.976675   20.849953    0.000000    1.485000
   507  Sc    c   -12.592117    3.636874   -0.004189    0.000000    3.000000
   508  Cl    c     5.152988    1.978006   20.851324    0.000000    1.485000
   509  Cl    c    -8.301928    7.426353   -1.499486    0.000000    1.485000
   510  Cl    c    -1.142699   -8.921753   20.852230    0.000000    1.485000
   511  Sc    c    -3.147229    1.817476   -6.466482    0.000000    3.000000
   512  Cl    c    11.725464   -5.449090    1.494789    0.000000    1.485000
   513  Cl    c    -1.148037  -16.514274    7.945568    0.000000    1.485000
   514  Cl    c    11.729009   -9.080726    7.945634    0.000000    1.485000
   515  Cl    c     8.580167  -10.900533    1.498648    0.000000    1.485000
   516  Cl    c    10.298124    0.000092   -1.500350    0.000000    1.485000
   517  Sc    c    -3.152803  -16.367254    6.450889    0.000000    3.000000
   518  Sc    c    12.604026   -7.270159    6.452102    0.000000    3.000000
   519  Cl    c    -4.287264  -14.693052   14.392976    0.000000    1.485000
   520  Cl    c    -1.144528   -9.247478   -4.961848    0.000000    1.485000
   521  Cl    c     2.005417  -14.692952   14.394078    0.000000    1.485000
   522  Cl    c    -8.298773   11.066759   11.402548    0.000000    1.485000
   523  Sc    c    -3.147103   -5.451873   -6.462853    0.000000    3.000000
   524  Sc    c   -12.590429   -7.269987   -0.000412    0.000000    3.000000
   525  Cl    c   -11.729311   -5.450625   17.862733    0.000000    1.485000
   526  Cl    c    13.445251   -1.816881   11.402839    0.000000    1.485000
   527  Cl    c     5.429611   -5.451007   20.850368    0.000000    1.485000
   528  Cl    c    -5.148364    8.916702   17.858742    0.000000    1.485000
   529  Cl    c    10.586884    7.105190   11.406168    0.000000    1.485000
   530  Cl    c     7.439375   -8.919491   17.861307    0.000000    1.485000
   531  Cl    c   -14.874937    3.633198   11.406087    0.000000    1.485000
   532  Sc    c   -15.740998   -5.454685    6.458210    0.000000    3.000000
   533  Sc    c     9.447631    9.087795    6.459150    0.000000    3.000000
   534  Cl    c    -8.574704  -10.901128   -1.491287    0.000000    1.485000
   535  Cl    c    -5.147058   12.553298   11.398042    0.000000    1.485000
   536  Cl    c    10.581467   -3.474954   -1.493141    0.000000    1.485000
   537  Cl    c     1.148081  -16.188176   11.404359    0.000000    1.485000
   538  Cl    c    -8.576156  -14.530676    4.963633    0.000000    1.485000
   539  Sc    c     0.000678  -14.537744    0.001800    0.000000    3.000000
   540  Sc    c     9.443540   -9.085813    0.003018    0.000000    3.000000
   541  Cl    c    13.726067   -1.655495    4.963396    0.000000    1.485000
   542  Cl    c    -5.153404  -12.878125   -1.491898    0.000000    1.485000
   543  Cl    c     1.144063  -12.881614   17.862136    0.000000    1.485000
   544  Cl    c   -14.874331   -7.266038   11.407850    0.000000    1.485000
   545  Cl    c    -8.296637    7.432218   17.862172    0.000000    1.485000
   546  Cl    c   -11.454639    9.255856    4.949582    0.000000    1.485000
   547  Cl    c    -5.434947   12.732086    4.949534    0.000000    1.485000
   548  Cl    c    10.587083  -10.739420   11.406633    0.000000    1.485000
   549  Cl    c    10.296487    0.000621   17.859355    0.000000    1.485000
   550  Cl    c   -11.439261  -12.549973    4.955477    0.000000    1.485000
   551  Cl    c    13.441419    1.815660    4.955272    0.000000    1.485000
   552  Cl    c    -8.298258  -14.699101   11.407254    0.000000    1.485000
   553  Sc    c   -12.589954    7.269559   12.898730    0.000000    3.000000
   554  Sc    c    -6.294968    0.000069   -6.463137    0.000000    3.000000
   555  Sc    c    -3.146944   12.720669   12.898619    0.000000    3.000000
   556  Cl    c     1.144000  -16.516291    4.965693    0.000000    1.485000
   557  Cl    c    10.583782  -11.066221    4.965863    0.000000    1.485000
   558  Sc    c    -6.294705   -3.634372   -6.463939    0.000000    3.000000
   559  Sc    c     3.148193    1.817044   -6.462688    0.000000    3.000000
   560  Sc    c    -6.294022    7.268649   19.358891    0.000000    3.000000
   561  Sc    c     3.149403  -16.373620    6.460435    0.000000    3.000000
   562  Sc    c     6.294941   10.902294   12.902317    0.000000    3.000000
   563  Sc    c     9.458403  -12.731234    6.461803    0.000000    3.000000
   564  Cl    c   -11.727843    9.087252   11.406090    0.000000    1.485000
   565  Sc    c     3.148201   -5.451449   -6.459270    0.000000    3.000000
   566  Cl    c    -5.146316  -16.186617   11.402640    0.000000    1.485000
   567  Cl    c    -8.581546  -10.900668   17.862940    0.000000    1.485000
   568  Cl    c    10.585361   -3.469683   17.862519    0.000000    1.485000
   569  Cl    c    -7.163263   12.727728    7.941319    0.000000    1.485000
   570  Cl    c   -10.588424   10.751450    7.941399    0.000000    1.485000
   571  Sc    c   -12.590298  -10.903402   12.903195    0.000000    3.000000
   572  Cl    c   -13.440820    5.452318    1.498388    0.000000    1.485000
   573  Cl    c    -5.150897  -12.882200   17.862841    0.000000    1.485000
   574  Cl    c   -16.600364   -3.645765    7.963824    0.000000    1.485000
   575  Cl    c     8.309844   10.736924    7.963485    0.000000    1.485000
   576  Cl    c    -1.145194   12.551082   14.396160    0.000000    1.485000
   577  Sc    c     9.442076   -1.816644   19.358110    0.000000    3.000000
   578  Cl    c    13.732038    1.654373   11.408351    0.000000    1.485000
   579  Sc    c    -9.442576    9.085840   -0.005851    0.000000    3.000000
   580  Sc    c    -3.146310  -16.354301   12.903395    0.000000    3.000000
   581  Cl    c    -2.282622   10.904303   -1.500117    0.000000    1.485000
   582  Cl    c    -5.156757  -16.518703    4.956304    0.000000    1.485000
   583  Cl    c    13.736329   -5.610875    4.956258    0.000000    1.485000
   584  Cl    c   -11.444267   -8.920431   -1.496846    0.000000    1.485000
   585  Cl    c   -11.727181  -12.718797   11.408342    0.000000    1.485000
   586  Sc    c     6.295065  -14.536805   12.903855    0.000000    3.000000
   587  Cl    c    13.733077   -5.288883   11.408046    0.000000    1.485000
   588  Cl    c   -16.891839   -0.164929    7.960149    0.000000    1.485000
   589  Cl    c     5.441795   12.728272    7.959748    0.000000    1.485000
   590  Sc    c   -15.736540    1.816770   12.901714    0.000000    3.000000
   591  Sc    c     3.148743   12.720368   12.902024    0.000000    3.000000
   592  Cl    c   -11.724441    5.452285   -1.495651    0.000000    1.485000
   593  Sc    c    -3.147087    9.085751   19.357522    0.000000    3.000000
   594  Cl    c   -10.304176  -14.538759    7.953145    0.000000    1.485000
   595  Cl    c    14.595534   -0.162092    7.952878    0.000000    1.485000
   596  Cl    c    -4.291717    7.099514   -4.959448    0.000000    1.485000
   597  Cl    c    -1.143027   12.877932    1.490946    0.000000    1.485000
   598  Cl    c     1.999348    7.097855   -4.958050    0.000000    1.485000
   599  Cl    c    -2.000982  -14.372353   -1.496483    0.000000    1.485000
   600  Cl    c   -13.731535   -8.921559    1.497091    0.000000    1.485000
   601  Sc    c   -15.736907   -5.450728   12.904117    0.000000    3.000000
   602  Cl    c    10.583246    3.474122   -1.495583    0.000000    1.485000
   603  Cl    c   -13.724610    5.608707   14.391588    0.000000    1.485000
   604  Cl    c    11.443056   -8.913820    1.501843    0.000000    1.485000
   605  Cl    c    11.445670    5.612165   14.396719    0.000000    1.485000
   606  Sc    c    -9.441817  -12.720763   -0.000720    0.000000    3.000000
   607  Cl    c    -7.155408    5.450487   20.852168    0.000000    1.485000
   608  Cl    c   -10.301174   -0.000543   20.853359    0.000000    1.485000
   609  Cl    c    -1.143742  -16.185697   14.399818    0.000000    1.485000
   610  Cl    c    -2.004368    0.161434   -7.958623    0.000000    1.485000
   611  Cl    c     0.862931   -1.817052   -7.958172    0.000000    1.485000
   612  Sc    c    -6.295165  -14.537708    0.000095    0.000000    3.000000
   613  Sc    c    12.589297   -3.633343   -0.000209    0.000000    3.000000
   614  Sc    c    -9.442272   -9.084869   19.359540    0.000000    3.000000
   615  Sc    c     9.442172    1.817163   19.359395    0.000000    3.000000
   616  Cl    c    -2.005680   -3.796042   -7.956854    0.000000    1.485000
   617  Cl    c    -7.435095    5.615523   -4.960877    0.000000    1.485000
   618  Cl    c   -10.582026    0.165608   -4.960818    0.000000    1.485000
   619  Cl    c    11.725392    5.448974    1.492885    0.000000    1.485000
   620  Cl    c     5.148460    5.614777   -4.959763    0.000000    1.485000
   621  Cl    c    -2.288312   10.902588   17.861606    0.000000    1.485000
   622  Cl    c     8.295142    0.166655   -4.956950    0.000000    1.485000
   623  Cl    c    -4.291237  -10.733211   -4.957856    0.000000    1.485000
   624  Cl    c    -0.860671  -16.353080    1.496790    0.000000    1.485000
   625  Cl    c     2.000554  -10.731908   -4.956470    0.000000    1.485000
   626  Cl    c   -11.442659   -8.917272   17.860070    0.000000    1.485000
   627  Cl    c   -13.726942   -9.242442   14.394533    0.000000    1.485000
   628  Sc    c    -3.146710  -12.719029   19.357570    0.000000    3.000000
   629  Cl    c   -10.582730   -3.798489   -4.960884    0.000000    1.485000
   630  Cl    c     8.294797   -3.799184   -4.957216    0.000000    1.485000
   631  Cl    c    11.444594   -9.245129   14.396911    0.000000    1.485000
   632  Sc    c    -3.147297    5.451948   -6.460431    0.000000    3.000000
   633  Cl    c    -4.287307    7.427456   20.850058    0.000000    1.485000
   634  Cl    c    10.579824   -7.426598   -1.490456    0.000000    1.485000
   635  Cl    c     2.005455    7.427649   20.851150    0.000000    1.485000
   636  Cl    c   -10.581663   -3.473384   20.851666    0.000000    1.485000
   637  Cl    c    -7.436351   -8.922449   20.852433    0.000000    1.485000
   638  Sc    c     3.148673  -16.354167   12.905349    0.000000    3.000000
   639  Cl    c     8.298725   -3.470699   20.853063    0.000000    1.485000
   640  Cl    c   -11.727386    5.450855   17.864070    0.000000    1.485000
   641  Cl    c    -7.437270  -16.511524    7.945643    0.000000    1.485000
   642  Cl    c     5.150937   -8.920348   20.853567    0.000000    1.485000
   643  Cl    c    14.871201   -3.632599    7.945491    0.000000    1.485000
   644  Cl    c     5.429685    5.449751   20.851366    0.000000    1.485000
[...]
   1997 z          7.716029      7.714883    -0.001146    Cartesian   -0.01
   1998 x         17.669337     17.671966     0.002629    Cartesian    0.01
   1998 y         -5.731618     -5.726796     0.004822    Cartesian   -0.08
   1998 z          7.716029      7.714885    -0.001144    Cartesian   -0.01
   1999 x         -1.211121     -1.210275     0.000846    Cartesian   -0.07
   1999 y         16.632779     16.628593    -0.004186    Cartesian   -0.03
   1999 z         14.168915     14.166259    -0.002656    Cartesian   -0.02
   2000 x          7.505211      7.503447    -0.001764    Cartesian   -0.02
   2000 y         12.998884     12.995920    -0.002964    Cartesian   -0.02
   2000 z         -1.263142     -1.260281     0.002861    Cartesian   -0.23
   2001 x          7.505211      7.503288    -0.001924    Cartesian   -0.03
   2001 y          5.731618      5.728765    -0.002853    Cartesian   -0.05
   2001 z         -7.716029     -7.714836     0.001193    Cartesian   -0.02
   2002 x        -13.798396    -13.797316     0.001079    Cartesian   -0.01
   2002 y         -8.802653     -8.803923    -0.001270    Cartesian    0.01
   2002 z         20.621802     20.620534    -0.001268    Cartesian   -0.01
   2003 x         14.522971     14.521074    -0.001898    Cartesian   -0.01
   2003 y          7.548696      7.547104    -0.001592    Cartesian   -0.02
   2003 z          1.263142      1.263468     0.000325    Cartesian    0.03
   2004 x         -8.228881     -8.228133     0.000749    Cartesian   -0.01
   2004 y        -10.619731    -10.620953    -0.001223    Cartesian    0.01
   2004 z         -7.716029     -7.717495    -0.001467    Cartesian    0.02
   2005 x        -20.092486    -20.088675     0.003811    Cartesian   -0.02
   2005 y         -5.731618     -5.728821     0.002797    Cartesian   -0.05
   2005 z          7.716029      7.714071    -0.001957    Cartesian   -0.03
   2006 x         11.863151     11.858860    -0.004292    Cartesian   -0.04
   2006 y         12.717454     12.715559    -0.001895    Cartesian   -0.01
   2006 z          7.716029      7.714062    -0.001967    Cartesian   -0.03
   2007 x         -1.211121     -1.209675     0.001446    Cartesian   -0.12
   2007 y         12.999146     12.996470    -0.002676    Cartesian   -0.02
   2007 z         20.621802     20.619919    -0.001883    Cartesian   -0.01
   2008 x        -17.669790    -17.667361     0.002429    Cartesian   -0.01
   2008 y         -2.098247     -2.099621    -0.001374    Cartesian    0.07
   2008 z         18.095518     18.093449    -0.002068    Cartesian   -0.01
   2009 x         -5.082516     -5.082850    -0.000334    Cartesian    0.01
   2009 y        -20.266412    -20.262692     0.003720    Cartesian   -0.02
   2009 z         11.642631     11.643776     0.001145    Cartesian    0.01
   2010 x        -16.945214    -16.941656     0.003558    Cartesian   -0.02
   2010 y          7.548696      7.546061    -0.002636    Cartesian   -0.03
   2010 z          1.263142      1.261529    -0.001613    Cartesian   -0.13
   2011 x         -5.569514     -5.566289     0.003225    Cartesian   -0.06
   2011 y          9.084344      9.085345     0.001000    Cartesian    0.01
   2011 z         -7.716029     -7.715716     0.000313    Cartesian   -0.00
   2012 x          7.504758      7.502764    -0.001994    Cartesian   -0.03
   2012 y         -9.365513     -9.362708     0.002805    Cartesian   -0.03
   2012 z         -7.716029     -7.714643     0.001386    Cartesian   -0.02
   2013 x         -0.724123     -0.725811    -0.001688    Cartesian    0.23
   2013 y        -16.351610    -16.349518     0.002092    Cartesian   -0.01
   2013 z         20.621802     20.619031    -0.002771    Cartesian   -0.01
   2014 x         -3.870942     -3.872440    -0.001499    Cartesian    0.04
   2014 y         -3.633895     -3.633204     0.000691    Cartesian   -0.02
   2014 z         27.074688     27.074030    -0.000658    Cartesian   -0.00
   2015 x          1.935244      1.935336     0.000092    Cartesian    0.00
   2015 y         -0.281169     -0.279499     0.001670    Cartesian   -0.59
   2015 z         27.074688     27.073982    -0.000707    Cartesian   -0.00
   2016 x        -19.605034    -19.601442     0.003592    Cartesian   -0.02
   2016 y         -1.817078     -1.817025     0.000053    Cartesian   -0.00
   2016 z         14.168915     14.171744     0.002828    Cartesian    0.02
   2017 x         13.798849     13.797666    -0.001183    Cartesian   -0.01
   2017 y         -8.802914     -8.801430     0.001484    Cartesian   -0.02
   2017 z         18.095518     18.094490    -0.001027    Cartesian   -0.01
   2018 x         -1.211121     -1.213049    -0.001927    Cartesian    0.16
   2018 y        -16.069919    -16.064648     0.005271    Cartesian   -0.03
   2018 z         -5.189744     -5.186405     0.003340    Cartesian   -0.06
   2019 x         -4.358393     -4.357308     0.001085    Cartesian   -0.02
   2019 y         -0.281169     -0.279527     0.001642    Cartesian   -0.58
   2019 z         27.074688     27.073603    -0.001086    Cartesian   -0.00
   2020 x         -0.724123     -0.726112    -0.001989    Cartesian    0.27
   2020 y          1.816555      1.816366    -0.000189    Cartesian   -0.01
   2020 z         27.074688     27.073549    -0.001139    Cartesian   -0.00
   2021 x        -10.164579    -10.163736     0.000842    Cartesian   -0.01
   2021 y         14.534271     14.531497    -0.002774    Cartesian   -0.02
   2021 z         14.168915     14.166646    -0.002269    Cartesian   -0.02
   2022 x         -1.211121     -1.212660    -0.001538    Cartesian    0.13
   2022 y         -1.535386     -1.532688     0.002698    Cartesian   -0.18
   2022 z        -11.642631    -11.639324     0.003307    Cartesian   -0.03
   2023 x        -11.375700    -11.373620     0.002080    Cartesian   -0.02
   2023 y         -1.535648     -1.533805     0.001843    Cartesian   -0.12
   2023 z         24.548404     24.546318    -0.002086    Cartesian   -0.01
   2024 x         11.863151     11.860135    -0.003016    Cartesian   -0.03
   2024 y          5.450188      5.450149    -0.000040    Cartesian   -0.00
   2024 z         20.621802     20.619983    -0.001819    Cartesian   -0.01
   2025 x          3.870942      3.868317    -0.002625    Cartesian   -0.07
   2025 y          7.267528      7.266678    -0.000849    Cartesian   -0.01
   2025 z         24.548404     24.546341    -0.002064    Cartesian   -0.01
   2026 x        -15.009970    -15.008523     0.001447    Cartesian   -0.01
   2026 y        -10.900638    -10.899396     0.001242    Cartesian   -0.01
   2026 z         18.095518     18.095468    -0.000050    Cartesian   -0.00
   2027 x         11.376153     11.373297    -0.002856    Cartesian   -0.03
   2027 y          5.731880      5.732748     0.000869    Cartesian    0.02
   2027 z         -5.189744     -5.187834     0.001911    Cartesian   -0.04
   2028 x          5.569514      5.570565     0.001051    Cartesian    0.02
   2028 y        -19.985243    -19.986835    -0.001591    Cartesian    0.01
   2028 z          7.716029      7.719738     0.003710    Cartesian    0.05
   2029 x         11.375700     11.376483     0.000783    Cartesian    0.01
   2029 y        -16.632518    -16.634347    -0.001830    Cartesian    0.01
   2029 z          7.716029      7.719823     0.003794    Cartesian    0.05
   2030 x         10.652030     10.648834    -0.003196    Cartesian   -0.03
   2030 y        -14.253364    -14.252536     0.000827    Cartesian   -0.01
   2030 z         -1.263142     -1.259852     0.003290    Cartesian   -0.26
   2031 x          8.228881      8.227059    -0.001822    Cartesian   -0.02
   2031 y         14.253364     14.250138    -0.003226    Cartesian   -0.02
   2031 z          1.263142      1.265915     0.002773    Cartesian    0.22
   2032 x        -13.798396    -13.796151     0.002245    Cartesian   -0.02
   2032 y          5.731880      5.730207    -0.001673    Cartesian   -0.03
   2032 z         -5.189744     -5.188957     0.000788    Cartesian   -0.02
   2033 x         -1.211574     -1.211099     0.000475    Cartesian   -0.04
   2033 y         -5.731618     -5.729333     0.002285    Cartesian   -0.04
   2033 z         27.074688     27.073955    -0.000734    Cartesian   -0.00
   2034 x          2.422696      2.420487    -0.002208    Cartesian   -0.09
   2034 y         -3.633895     -3.633223     0.000671    Cartesian   -0.02
   2034 z         27.074688     27.073966    -0.000722    Cartesian   -0.00
   2035 x        -13.798849    -13.794898     0.003951    Cartesian   -0.03
   2035 y        -16.632518    -16.626745     0.005772    Cartesian   -0.03
   2035 z          7.716029      7.712801    -0.003228    Cartesian   -0.04
   2036 x         18.156788     18.149796    -0.006992    Cartesian   -0.04
   2036 y          1.816555      1.816013    -0.000542    Cartesian   -0.03
   2036 z          7.716029      7.712785    -0.003244    Cartesian   -0.04
   2037 x         -8.229334     -8.228364     0.000970    Cartesian   -0.01
   2037 y         14.253102     14.251202    -0.001900    Cartesian   -0.01
   2037 z         -1.263142     -1.265020    -0.001878    Cartesian    0.15
   2038 x        -10.652030    -10.651459     0.000571    Cartesian   -0.01
   2038 y         14.253364     14.249223    -0.004140    Cartesian   -0.03
   2038 z          1.263142      1.264898     0.001756    Cartesian    0.14
   2039 x         -5.569514     -5.566396     0.003118    Cartesian   -0.06
   2039 y        -12.717454    -12.718180    -0.000725    Cartesian    0.01
   2039 z         -7.716029     -7.715377     0.000652    Cartesian   -0.01
   2040 x          4.357940      4.358696     0.000756    Cartesian    0.02
   2040 y         14.253102     14.249544    -0.003558    Cartesian   -0.02
   2040 z         18.095518     18.092892    -0.002625    Cartesian   -0.01
   2041 x         10.652030     10.650508    -0.001522    Cartesian   -0.01
   2041 y          0.281169      0.278647    -0.002522    Cartesian   -0.90
   2041 z         -7.716029     -7.714153     0.001876    Cartesian   -0.02
   2042 x         -1.211574     -1.210036     0.001538    Cartesian   -0.13
   2042 y        -20.266151    -20.261180     0.004970    Cartesian   -0.02
   2042 z         14.168915     14.166199    -0.002716    Cartesian   -0.02
   2043 x        -18.156788    -18.150088     0.006700    Cartesian   -0.04
   2043 y         -5.450188     -5.449379     0.000809    Cartesian   -0.01
   2043 z         -1.263142     -1.259090     0.004052    Cartesian   -0.32
   2044 x         -1.935697     -1.936136    -0.000438    Cartesian    0.02
   2044 y        -18.449596    -18.446873     0.002722    Cartesian   -0.01
   2044 z         18.095518     18.095249    -0.000269    Cartesian   -0.00
   2045 x          7.017760      7.014551    -0.003209    Cartesian   -0.05
   2045 y        -16.351087    -16.349724     0.001364    Cartesian   -0.01
   2045 z         18.095518     18.093046    -0.002471    Cartesian   -0.01
   2046 x         11.375700     11.373139    -0.002561    Cartesian   -0.02
   2046 y         -9.365251     -9.365588    -0.000336    Cartesian    0.00
   2046 z         -5.189744     -5.188188     0.001557    Cartesian   -0.03
   2047 x         10.651577     10.649923    -0.001654    Cartesian   -0.02
   2047 y         -3.915063     -3.912536     0.002527    Cartesian   -0.06
   2047 z         -7.716029     -7.713965     0.002064    Cartesian   -0.03
   2048 x         10.164579     10.160869    -0.003710    Cartesian   -0.04
   2048 y         10.901161     10.900221    -0.000940    Cartesian   -0.01
   2048 z         18.095518     18.092784    -0.002733    Cartesian   -0.02
   2049 x        -17.669337    -17.666400     0.002937    Cartesian   -0.02
   2049 y          2.097985      2.099555     0.001570    Cartesian    0.07
   2049 z         18.095518     18.093288    -0.002229    Cartesian   -0.01
   2050 x        -13.798849    -13.796673     0.002175    Cartesian   -0.02
   2050 y         -9.365251     -9.363344     0.001907    Cartesian   -0.02
   2050 z         -5.189744     -5.189107     0.000638    Cartesian   -0.01
   2051 x         15.009970     15.004522    -0.005448    Cartesian   -0.04
   2051 y        -10.901161    -10.899399     0.001762    Cartesian   -0.02
   2051 z          1.263142      1.261492    -0.001650    Cartesian   -0.13
   2052 x         -3.870942     -3.867347     0.003595    Cartesian   -0.09
   2052 y         -3.633895     -3.633742     0.000153    Cartesian   -0.00
   2052 z        -11.642631    -11.638862     0.003769    Cartesian   -0.03
   2053 x          1.935244      1.933277    -0.001968    Cartesian   -0.10
   2053 y         -0.281169     -0.284185    -0.003017    Cartesian    1.07
   2053 z        -11.642631    -11.638852     0.003779    Cartesian   -0.03
   2054 x          7.505211      7.503760    -0.001451    Cartesian   -0.02
   2054 y         12.998884     12.996540    -0.002344    Cartesian   -0.02
   2054 z         18.095518     18.095336    -0.000182    Cartesian   -0.00
   2055 x         -4.358393     -4.359597    -0.001204    Cartesian    0.03
   2055 y         -0.281169     -0.283500    -0.002332    Cartesian    0.83
   2055 z        -11.642631    -11.639122     0.003510    Cartesian   -0.03
   2056 x         -0.724123     -0.721519     0.002604    Cartesian   -0.36
   2056 y          1.816555      1.816391    -0.000164    Cartesian   -0.01
   2056 z        -11.642631    -11.639122     0.003509    Cartesian   -0.03
   2057 x        -10.164579    -10.164441     0.000138    Cartesian   -0.00
   2057 y        -18.168427    -18.166181     0.002246    Cartesian   -0.01
   2057 z         14.168915     14.167227    -0.001689    Cartesian   -0.01
   2058 x         -1.935697     -1.934323     0.001374    Cartesian   -0.07
   2058 y         17.886735     17.883905    -0.002830    Cartesian   -0.02
   2058 z         11.642631     11.640216    -0.002415    Cartesian   -0.02
   2059 x        -20.816609    -20.818975    -0.002366    Cartesian    0.01
   2059 y         -0.281430     -0.277703     0.003727    Cartesian   -1.32
   2059 z          5.189744      5.191658     0.001913    Cartesian    0.04
   2060 x          7.504758      7.502752    -0.002006    Cartesian   -0.03
   2060 y         16.069919     16.073791     0.003873    Cartesian    0.02
   2060 z          5.189744      5.191550     0.001806    Cartesian    0.03
   2061 x          4.357940      4.355420    -0.002520    Cartesian   -0.06
   2061 y        -18.449596    -18.443725     0.005871    Cartesian   -0.03
   2061 z         -1.263142     -1.259227     0.003915    Cartesian   -0.31
   2062 x          8.716333      8.711259    -0.005073    Cartesian   -0.06
   2062 y         14.534271     14.531880    -0.002391    Cartesian   -0.02
   2062 z         14.168915     14.165985    -0.002931    Cartesian   -0.02
   2063 x         -1.211574     -1.212344    -0.000770    Cartesian    0.06
   2063 y         -5.731618     -5.732634    -0.001016    Cartesian    0.02
   2063 z        -11.642631    -11.639681     0.002950    Cartesian   -0.03
   2064 x          2.422696      2.423945     0.001249    Cartesian    0.05
   2064 y         -3.633895     -3.633767     0.000128    Cartesian   -0.00
   2064 z        -11.642631    -11.639700     0.002931    Cartesian   -0.03
   2065 x        -11.376153    -11.374120     0.002033    Cartesian   -0.02
   2065 y         -5.731880     -5.733494    -0.001614    Cartesian    0.03
   2065 z         24.548404     24.545623    -0.002781    Cartesian   -0.01
   2066 x          7.504758      7.505137     0.000379    Cartesian    0.01
   2066 y          5.169020      5.166445    -0.002575    Cartesian   -0.05
   2066 z         24.548404     24.545596    -0.002808    Cartesian   -0.01
   2067 x         17.669337     17.665994    -0.003343    Cartesian   -0.02
   2067 y         -2.097985     -2.099927    -0.001942    Cartesian    0.09
   2067 z          1.263142      1.265590     0.002447    Cartesian    0.19
   2068 x        -16.945667    -16.943800     0.001867    Cartesian   -0.01
   2068 y         10.619731     10.621680     0.001950    Cartesian    0.02
   2068 z          7.716029      7.716462     0.000433    Cartesian    0.01
   2069 x         -3.870942     -3.873431    -0.002490    Cartesian    0.06
   2069 y         18.167904     18.167311    -0.000593    Cartesian   -0.00
   2069 z          7.716029      7.716534     0.000505    Cartesian    0.01
   2070 x          4.357940      4.357739    -0.000201    Cartesian   -0.00
   2070 y        -11.182329    -11.181980     0.000350    Cartesian   -0.00
   2070 z         24.548404     24.546918    -0.001486    Cartesian   -0.01
   2071 x          1.211574      1.213003     0.001429    Cartesian    0.12
   2071 y        -12.436547    -12.432584     0.003963    Cartesian   -0.03
   2071 z         24.548404     24.544989    -0.003415    Cartesian   -0.01
   2072 x          7.017760      7.013650    -0.004110    Cartesian   -0.06
   2072 y         -9.083821     -9.083060     0.000761    Cartesian   -0.01
   2072 z         24.548404     24.544988    -0.003416    Cartesian   -0.01
   2073 x         -7.017760     -7.015763     0.001997    Cartesian   -0.03
   2073 y         16.351087     16.348355    -0.002733    Cartesian   -0.02
   2073 z          1.263142      1.264380     0.001237    Cartesian    0.10
   2074 x        -20.092486    -20.089466     0.003019    Cartesian   -0.02
   2074 y         -2.097985     -2.096773     0.001212    Cartesian   -0.06
   2074 z          1.263142      1.262697    -0.000445    Cartesian   -0.04
   2075 x        -11.863151    -11.862688     0.000463    Cartesian   -0.00
   2075 y          1.817078      1.816913    -0.000165    Cartesian   -0.01
   2075 z         24.548404     24.546713    -0.001691    Cartesian   -0.01
   2076 x          1.211574      1.211508    -0.000066    Cartesian   -0.01
   2076 y          9.365251      9.364773    -0.000478    Cartesian   -0.01
   2076 z         24.548404     24.546713    -0.001691    Cartesian   -0.01
   2077 x        -18.156788    -18.153563     0.003225    Cartesian   -0.02
   2077 y         -5.450188     -5.449693     0.000495    Cartesian   -0.01
   2077 z         18.095518     18.095456    -0.000062    Cartesian   -0.00
--------------------------------------------------------------------------------


  Time to end of optimisation  =      709.1609 seconds


  Peak dynamic memory used =     626.27 MB 


  Timing analysis for GULP :

--------------------------------------------------------------------------------
  Task / Subroutine                                          Time (Seconds)
--------------------------------------------------------------------------------
  Calculation of reciprocal space energy and derivatives          0.0051
  Calculation of reciprocal space energy using symmetry           0.0628
  Calculation of real space energy and derivatives                0.0266
  Calculation of real space energy using symmetry                 1.1481
  Calculation for region 1 energy and derivatives (2-b)         208.0240
  Calculation for region 2a energy                               58.0472
  Calculation for region 2b energy                                0.0083
  Calculation and manipulation of Hessian matrix                  0.1562
  Calculation of matrix inversion                               438.6057
  Symmetry generation of equivalent positions                     0.0039
  Global summation overhead                                       0.0004
--------------------------------------------------------------------------------
  Total CPU time                                                709.1610
--------------------------------------------------------------------------------


  Dump file written as ScCl3.grs



  **** GULP has completed with   2 warnings - beware! ****

  Job Finished at 11:46.35 18th August     2021                               

