********************************************************************************
*                       GENERAL UTILITY LATTICE PROGRAM                        *
*                                 Julian Gale                                  *
*                       Curtin Institute for Computation                       *
*                    School of Molecular and Life Sciences                     *
*                    Curtin University, Western Australia                      *
********************************************************************************
* Version = 5.2.0 * Last modified =  10th September 2020                       *
********************************************************************************
*  optimise     - perform optimisation run                                     *
*  conp         - constant pressure calculation                                *
*  property     - calculate properties for final geometry                      *
*  defect       - perform defect calculation after bulk run                    *
*  compare      - compare initial and final structures                         *
********************************************************************************

  Job Started  at 14:22.57 17th August     2021                               

  Number of CPUs =     1


  Total number of configurations input =      1

********************************************************************************
*  Input for Configuration =   1                                               *
********************************************************************************

  Formula = Sc2Cl6                                                      

  Number of irreducible atoms/shells =       3


  Total number atoms/shells =      14

  Dimensionality = 3               :  Bulk   


  Symmetry :

  Crystal family                   :  Hexagonal   
  Crystal class  (Groth - 1921)    :  Trigonal Rhombohedral                

  Space group (centrosymmetric)    :  R -3            

  Patterson group                  :  R -3     

  Cartesian lattice vectors (Angstroms) :

        3.246588    1.874418    6.441540
       -3.246588    1.874418    6.441540
        0.000000   -3.748837    6.441540

  Cell parameters (Angstroms/Degrees):

  a =       7.4530    alpha =  51.6480
  b =       7.4530    beta  =  51.6480
  c =       7.4530    gamma =  51.6480

  Initial cell volume =         235.198534 Angs**3

  Temperature of configuration =   0.00     K 

  Pressure of configuration =         0.000 GPa 

  Fractional coordinates of asymmetric unit :

--------------------------------------------------------------------------------
   No.  Atomic       x           y          z         Charge      Occupancy
        Label      (Frac)      (Frac)     (Frac)        (e)         (Frac)  
--------------------------------------------------------------------------------
      1 Sc    c    0.333900    0.333900    0.333900 *   0.00000    1.000000    
      2 Cl    c    0.073700 *  0.443900 *  0.705300 *   0.00000    1.000000    
      3 Cl    s    0.073700 *  0.443900 *  0.705300 *   0.00000    1.000000    
--------------------------------------------------------------------------------


  Constraints : 

--------------------------------------------------------------------------------
  Constraint no.      Unconstrained     Constrained    Coefficient    Offset
                         Variable         Variable
--------------------------------------------------------------------------------
           1              Strain 1        Strain 2       1.00000      0.0000
--------------------------------------------------------------------------------


********************************************************************************
*  General input information                                                   *
********************************************************************************

  Species output for all configurations : 

--------------------------------------------------------------------------------
  Species    Type    Atomic    Atomic    Charge       Radii (Angs)     Library
                     Number     Mass       (e)     Cova   Ionic  VDW   Symbol
--------------------------------------------------------------------------------
    Sc       Core       21      44.96   0.000000   1.440  0.000  2.150          
    Cl       Core       17      35.45   0.000000   0.990  0.000  1.650          
    Cl       Shell      17       0.00   0.000000   0.990  0.000  1.650          
--------------------------------------------------------------------------------


  Lattice summation method               =    Ewald          (3-D)
                                         =    Parry          (2-D)
                                         =    Saunders et al (1-D)
  Accuracy factor for lattice sums       =   12.000


  Analytic derivatives to be used

  Time limit = Infinity

********************************************************************************
*  Output for configuration   1                                                *
********************************************************************************


  Components of energy : 

--------------------------------------------------------------------------------
  Interatomic potentials     =           0.00000000 eV    
  Monopole - monopole (real) =           0.00000000 eV    
  Monopole - monopole (recip)=           0.00000000 eV    
  Monopole - monopole (total)=           0.00000000 eV    
--------------------------------------------------------------------------------
  Total lattice energy : 
    Primitive unit cell      =           0.00000000 eV    
    Non-primitive unit cell  =           0.00000000 eV    
--------------------------------------------------------------------------------
  Total lattice energy (in kJmol-1): 
    Primitive unit cell      =               0.0000 kJ/(mole unit cells)
    Non-primitive unit cell  =               0.0000 kJ/(mole unit cells)
--------------------------------------------------------------------------------


  Number of variables =        9

  Maximum number of calculations  =          1000
  Maximum Hessian update interval =            10
  Maximum step size               =   1.000000000
  Maximum parameter tolerance     =   0.000010000
  Maximum function  tolerance     =   0.000010000
  Maximum gradient  tolerance     =   0.001000000
  Maximum gradient  component     =   0.010000000

  Symmetry constrained optimisation

  Symmetry used for second derivatives

  Cell parameters to be optimised using strains

  Newton-Raphson optimiser to be used

  BFGS hessian update to be used

  Lower half triangular hessian to be used

  Start of bulk optimisation :

  Cycle:      0 Energy:         0.000000  Gnorm:      0.000000  CPU:    0.004


  **** Optimisation achieved ****


  Final energy =       0.00000000 eV
  Final Gnorm  =       0.00000000

  Components of energy : 

--------------------------------------------------------------------------------
  Interatomic potentials     =           0.00000000 eV    
  Monopole - monopole (real) =           0.00000000 eV    
  Monopole - monopole (recip)=           0.00000000 eV    
  Monopole - monopole (total)=           0.00000000 eV    
--------------------------------------------------------------------------------
  Total lattice energy : 
    Primitive unit cell      =           0.00000000 eV    
    Non-primitive unit cell  =           0.00000000 eV    
--------------------------------------------------------------------------------
  Total lattice energy (in kJmol-1): 
    Primitive unit cell      =               0.0000 kJ/(mole unit cells)
    Non-primitive unit cell  =               0.0000 kJ/(mole unit cells)
--------------------------------------------------------------------------------

  Final asymmetric unit coordinates :

--------------------------------------------------------------------------------
   No.  Atomic        x           y           z         Radius
        Label       (Frac)      (Frac)      (Frac)       (Angs) 
--------------------------------------------------------------------------------
     1  Sc    c     0.333900    0.333900    0.333900    0.000000
     2  Cl    c     0.073700    0.443900    0.705300    0.000000
     3  Cl    s     0.073700    0.443900    0.705300    0.000000
--------------------------------------------------------------------------------

  Final Cartesian lattice vectors (Angstroms) :

        3.246588    1.874418    6.441540
       -3.246588    1.874418    6.441540
        0.000000   -3.748837    6.441540


  Final cell parameters and derivatives :

--------------------------------------------------------------------------------
       a            7.453000 Angstrom     dE/de1(xx)     0.000000 eV/strain
       b            7.453000 Angstrom     dE/de2(yy)     0.000000 eV/strain
       c            7.453000 Angstrom     dE/de3(zz)     0.000000 eV/strain
       alpha       51.648000 Degrees      dE/de4(yz)     0.000000 eV/strain
       beta        51.648000 Degrees      dE/de5(xz)     0.000000 eV/strain
       gamma       51.648000 Degrees      dE/de6(xy)     0.000000 eV/strain
--------------------------------------------------------------------------------

  Primitive cell volume =           235.198534 Angs**3

  Density of cell =      2.136579 g/cm**3

  Non-primitive lattice parameters :

  a    =     6.493176  b   =     6.493176  c    =    19.324619
  alpha=    90.000000  beta=    90.000000  gamma=   120.000000

  Non-primitive cell volume =           705.595603 Angs**3


  Final internal derivatives :

--------------------------------------------------------------------------------
   No.  Atomic          a             b             c           Radius
        Label          (eV)          (eV)          (eV)        (eV/Angs)
--------------------------------------------------------------------------------
      1 Sc    c       0.000000      0.000000      0.000000      0.000000
      2 Cl    c       0.000000      0.000000      0.000000      0.000000
      3 Cl    s       0.000000      0.000000      0.000000      0.000000
--------------------------------------------------------------------------------
  Maximum abs         0.000000      0.000000      0.000000      0.000000
--------------------------------------------------------------------------------

  Comparison of initial and final structures : 

--------------------------------------------------------------------------------
  Parameter   Initial value   Final value   Difference    Units      Percent
--------------------------------------------------------------------------------
    Volume       705.595603    705.595603    -0.000000    Angs**3     -0.00
    a              6.493176      6.493176    -0.000000    Angstroms   -0.00
    b              6.493176      6.493176    -0.000000    Angstroms   -0.00
    c             19.324619     19.324619    -0.000000    Angstroms   -0.00
    alpha         90.000000     90.000000     0.000000    Degrees      0.00
    beta          90.000000     90.000000     0.000000    Degrees      0.00
    gamma        120.000000    120.000000     0.000000    Degrees      0.00
      1 x          0.000000      0.000000     0.000000    Fractional   0.00
      1 y          0.000000      0.000000     0.000000    Fractional   0.00
      1 z          0.333900      0.333900     0.000000    Fractional   0.00
      2 x          0.666067      0.666067     0.000000    Fractional   0.00
      2 y          0.702333      0.702333     0.000000    Fractional   0.00
      2 z          0.407633      0.407633     0.000000    Fractional   0.00
      3 x          0.666067      0.666067     0.000000    Fractional   0.00
      3 y          0.702333      0.702333     0.000000    Fractional   0.00
      3 z          0.407633      0.407633     0.000000    Fractional   0.00
--------------------------------------------------------------------------------



!!!!!!!!!!!!!!!!!!!!!!!!!!!!!!!!!!!!!!!!!!!!!!!!!!!!!!!!!!!!!!!!!!!!!!!!!!!!!!!!
!! WARNING : Properties cannot be calculated - matrix is singular
!!!!!!!!!!!!!!!!!!!!!!!!!!!!!!!!!!!!!!!!!!!!!!!!!!!!!!!!!!!!!!!!!!!!!!!!!!!!!!!!


  Time to end of optimisation =       0.0039 seconds

********************************************************************************
*  Defect calculation for configuration   1 :                                  *
********************************************************************************


  **** No defects for configuration number    1 ****


  Peak dynamic memory used =       1.88 MB 


  Timing analysis for GULP :

--------------------------------------------------------------------------------
  Task / Subroutine                                          Time (Seconds)
--------------------------------------------------------------------------------
  Symmetry generation of equivalent positions                     0.0003
--------------------------------------------------------------------------------
  Total CPU time                                                  0.0040
--------------------------------------------------------------------------------



  **** GULP has completed with 1 warning - beware! ****

  Job Finished at 14:22.57 17th August     2021                               

