LAMMPS (7 Aug 2019)
  using 1 OpenMP thread(s) per MPI task

# Input written to comply with LAMMPS 2017-08-11 00:00:00

# Atomic Configuration
units           metal
boundary        p p p
box             tilt large
atom_style      charge
read_data       triclinic_7x7x7.lmp
  orthogonal box = (0 0 0) to (72.8259 72.8259 72.8259)
  4 by 5 by 8 MPI processor grid
  reading atoms ...
  18522 atoms
  read_data CPU = 0.078378 secs
group           lithium type 1
5831 atoms in group lithium
group           scandium type 2
1715 atoms in group scandium
group           chloride type 3
10976 atoms in group chloride
variable        T1 equal 300
variable        dt equal 0.001

# Potential Setup
pair_style      buck/coul/long 12.0
pair_coeff      * * 0.0 1.0 0.0
pair_coeff      1 1    360.530000  0.161000   0.000000 # Li Li
pair_coeff      1 3    421.040000  0.344000   0.000000 # Li Cl
pair_coeff      3 3   1227.200000  0.321000  14.530000 # Cl Cl
pair_coeff      2 3  12131.350000  0.250700   0.000000 # Sc Cl

kspace_style    pppm 1e-05

# General Setup
timestep        ${dt}
timestep        0.001

# Thermodynamic Information Output
thermo_style    custom step temp epair emol etotal press lx ly lz fmax cpu cpuremain
thermo          1000

# Intial Atom Velocity
velocity        all create ${T1} 152245 dist gaussian rot yes
velocity        all create 300 152245 dist gaussian rot yes

# Stage 0: npt_equilibriation
restart         0
fix             int all npt aniso 1.0 1.0 $(1000*dt) temp ${T1} ${T1} $(100*dt)
fix             int all npt aniso 1.0 1.0 1 temp ${T1} ${T1} $(100*dt)
fix             int all npt aniso 1.0 1.0 1 temp 300 ${T1} $(100*dt)
fix             int all npt aniso 1.0 1.0 1 temp 300 300 $(100*dt)
fix             int all npt aniso 1.0 1.0 1 temp 300 300 0.10000000000000000555
run             50000
PPPM initialization ...
  using 12-bit tables for long-range coulomb (../kspace.cpp:323)
  G vector (1/distance) = 0.265592
  grid = 64 64 64
  stencil order = 5
  estimated absolute RMS force accuracy = 0.000172762
  estimated relative force accuracy = 1.19976e-05
  using double precision MKL FFT
  3d grid and FFT values/proc = 6900 1792
Neighbor list info ...
  update every 1 steps, delay 10 steps, check yes
  max neighbors/atom: 2000, page size: 100000
  master list distance cutoff = 14
  ghost atom cutoff = 14
  binsize = 7, bins = 11 11 11
  1 neighbor lists, perpetual/occasional/extra = 1 0 0
  (1) pair buck/coul/long, perpetual
      attributes: half, newton on
      pair build: half/bin/atomonly/newton
      stencil: half/bin/3d/newton
      bin: standard
Per MPI rank memory allocation (min/avg/max) = 3.766 | 3.846 | 4.184 Mbytes
Step Temp E_pair E_mol TotEng Press Lx Ly Lz Fmax CPU CPULeft 
       0          300   -112596.25            0   -111878.04   -7718.6821      72.8259      72.8259      72.8259    5.7883151            0            0 
    1000    304.02981   -129077.12            0   -128349.26     -436.533    74.559497    78.526361    78.583161    3.0357439    4.6085391    225.81846 
    2000     301.5752   -129304.94            0   -128582.96    32.622597     74.09866    78.364409    78.568171    2.8769732    8.9414961    214.59593 
    3000    299.30005   -129381.99            0   -128665.46    63.194702    74.164096    78.353111    78.394283     2.857848    12.961091    203.05711 
    4000    301.97368   -129423.22            0   -128700.29    300.23744    74.126233    78.207415    78.292855    2.8843614    17.158613    197.32406 
    5000    299.50909   -129473.55            0   -128756.52    168.72376    74.076076    78.236847    78.113643    2.7393754    21.633238    194.69915 
    6000    305.52589   -129479.93            0   -128748.49   -12.898366    74.082556    78.202197    78.262501     2.852568    26.207346    192.18721 
    7000    295.52978   -129509.82            0   -128802.31    181.39261    74.012578    78.162157     78.23103    3.2236449    30.510969    187.42452 
    8000     300.9764   -129514.08            0   -128793.54     113.7249    74.114286    78.150926     78.23535    3.0314477    34.943335    183.45251 
    9000    299.62824   -129530.55            0   -128813.23   -110.71256    74.001426     78.14944      78.2247     2.692463    39.299379    179.03051 
   10000    296.31963   -129531.88            0   -128822.48    140.25867    74.007346    78.072013    78.236386    3.1716343    43.762122    175.04849 
   11000    300.29782   -129554.24            0   -128835.32     112.1012    73.908176    78.066113    78.206658    2.8202434    48.119735    170.60634 
   12000     296.5371   -129548.76            0   -128838.84   -389.63758    74.017755    78.004875    78.213239    2.6125731    52.280806    165.55589 
   13000    301.07988   -129558.64            0   -128837.85   -112.41424    73.998125    78.111618    78.096776    2.9056746    56.308582    160.26289 
   14000    298.47447   -129571.27            0   -128856.72    -279.8855    73.990345     78.08566     78.20333    2.9271997    60.440108    155.41742 
   15000    298.00034   -129574.37            0   -128860.94   -43.217291    74.061249    78.031118    78.082584    2.9706875    65.229936    152.20319 
   16000    301.11322   -129581.76            0   -128860.88   -351.97225     73.94433    78.104832       78.035     3.062065    69.279081    147.21805 
   17000    300.64096   -129585.69            0   -128865.95    1.4016723    74.035396    78.013407    77.992969    2.5811533    73.643689     142.9554 
   18000    299.92887   -129596.15            0   -128878.11   -294.90305    73.973209    78.028309    78.100683    2.9564905    77.920663    138.52563 
   19000    298.16563   -129608.76            0   -128894.94    24.715675    73.988291    78.074738    77.919118    3.0434409     82.19425    134.10641 
   20000    300.80763   -129595.76            0   -128875.62   -178.14627    73.752885    78.045088    78.107202    2.7784697    86.638384    129.95758 
   21000    298.55516   -129609.52            0   -128894.78    105.99992    73.886567    78.061465    77.973786    2.7886656     90.70231    125.25557 
   22000    300.37357   -129612.63            0   -128893.53   -101.38816    73.925441    78.006193    77.982465    3.2155269    94.821844    120.68235 
   23000    299.13854   -129611.41            0   -128895.26    216.18506    73.843096    78.008001     77.93797    2.8506606     99.00224    116.22002 
   24000    302.09377   -129612.68            0   -128889.46   -458.31743    73.918487    78.177275    77.891269    2.7978897    103.65159    112.28922 
   25000    297.22484    -129624.6            0   -128913.04    15.483273    73.975375    77.940407    77.909319    2.9350531    107.86679    107.86679 
   26000    298.62303   -129614.24            0   -128899.33    14.247177    73.944706    78.012326    77.877579    3.0099054    111.94635    103.33509 
   27000    297.58806   -129632.38            0   -128919.95    156.02722    73.945483    77.849485    77.997835     3.721707    116.23517    99.015144 
   28000    300.52771   -129624.93            0   -128905.45   -211.43189    73.971474    78.004544    77.916689    3.0162322    120.48981    94.670564 
   29000    302.71692    -129639.4            0   -128914.69    109.71335    73.988723    77.882432    77.984935    2.9238734    125.02667    90.536556 
   30000    298.41942   -129627.84            0   -128913.42   -33.269704    73.903638    78.038377    77.962012    3.2525447    129.21169    86.141127 
   31000    301.47477    -129634.3            0   -128912.56    294.45474    73.952744    77.885959    77.907283     2.804925    133.31839    81.711269 
   32000    299.40312    -129641.5            0   -128924.72    73.456502    73.939618    77.826613    77.887341    2.9507098    137.31836    77.241578 
   33000    299.52912   -129643.01            0   -128925.93   -59.835829    73.942129    77.798327    78.024086     2.695144    141.65392    72.973234 
   34000    299.21691   -129646.87            0   -128930.53    378.57235    73.917124    77.851976    77.893761    3.1753772    146.27147    68.833633 
   35000    300.68428   -129642.79            0   -128922.95    225.35267    73.921014    77.795691     77.97836    3.2070162    150.55195    64.522263 
   36000    299.30922   -129650.98            0   -128934.43   -187.41282    73.885887    77.847361     77.89537    2.8662551    154.87931    60.230843 
   37000    301.57403    -129649.4            0   -128927.43   -28.979843    73.815555    77.977128     77.90372    2.9913361    159.01822    55.871267 
   38000    299.95503   -129651.69            0   -128933.59   -77.950742    73.794325    77.820818     78.02362     3.862874    163.50824    51.634181 
   39000    303.11914   -129655.34            0   -128929.66    289.32383    73.956242    77.860894    77.820189    2.6341406    167.93728    47.366926 
   40000    297.99399   -129658.44            0   -128945.03    170.61497    73.946792    77.894842    77.764338    2.7408967    171.96689    42.991723 
   41000    304.26939   -129650.01            0   -128921.58   -106.66877    73.967071    77.816298    77.906641    3.1155286    176.05268    38.645711 
   42000    297.99561   -129661.88            0   -128948.47   -176.42749    73.899401    77.810325    77.926916    2.9257265    180.24162    34.331738 
   43000    301.51524   -129656.61            0   -128934.77     -332.284    73.862606    77.920889    77.831686    3.1407208    184.90139    30.100226 
   44000     298.8116   -129662.64            0   -128947.28   -299.27665    73.866877    77.875853    77.911541    2.5249009    189.01283    25.774477 
   45000    301.42926   -129664.14            0   -128942.51    251.14862    73.892611    77.888488    77.837952     2.799242    193.13977    21.459975 
   46000    298.20593   -129651.45            0   -128937.54   -309.34279    73.948486    77.872765    77.796708    3.2022337    197.37517    17.163058 
   47000     298.9606    -129668.8            0   -128953.08   -94.890234    73.789295    77.927761    77.862446    3.1853287    201.56129    12.865614 
   48000    299.68259    -129660.4            0   -128942.95   -8.4898296    73.798136    77.823465    77.830121    2.8280066    206.04613    8.5852553 
   49000    300.07066   -129665.68            0    -128947.3    98.295607    73.852702     77.82012    77.853765    3.2436084    210.25963    4.2910128 
   50000    301.22937   -129669.38            0   -128948.23    151.51516    73.848122    77.853443    77.773037    2.9834341    214.32762            0 
Loop time of 214.328 on 160 procs for 50000 steps with 18522 atoms

Performance: 20.156 ns/day, 1.191 hours/ns, 233.288 timesteps/s
98.8% CPU use with 160 MPI tasks x 1 OpenMP threads

MPI task timing breakdown:
Section |  min time  |  avg time  |  max time  |%varavg| %total
---------------------------------------------------------------
Pair    | 30.548     | 38.688     | 44.399     |  38.9 | 18.05
Kspace  | 116.67     | 122.71     | 130.89     |  22.4 | 57.25
Neigh   | 0.58397    | 0.69592    | 0.78004    |   4.2 |  0.32
Comm    | 27.86      | 28.828     | 29.461     |   6.3 | 13.45
Output  | 0.0037174  | 0.0037724  | 0.0048335  |   0.1 |  0.00
Modify  | 17.166     | 18.37      | 19.941     |  18.7 |  8.57
Other   |            | 5.031      |            |       |  2.35

Nlocal:    115.763 ave 131 max 96 min
Histogram: 1 2 10 12 31 26 39 27 10 2
Nghost:    3052.42 ave 3107 max 2993 min
Histogram: 5 4 10 21 33 33 28 13 7 6
Neighs:    27498.2 ave 32152 max 21423 min
Histogram: 1 3 11 15 31 31 26 23 14 5

Total # of neighbors = 4399705
Ave neighs/atom = 237.539
Neighbor list builds = 1161
Dangerous builds = 5

# Stage 1: nvt_equilibriation
unfix           int
restart         0
fix             int all nvt temp ${T1} ${T1} $(100*dt)
fix             int all nvt temp 300 ${T1} $(100*dt)
fix             int all nvt temp 300 300 $(100*dt)
fix             int all nvt temp 300 300 0.10000000000000000555
run             6000000
PPPM initialization ...
  using 12-bit tables for long-range coulomb (../kspace.cpp:323)
  G vector (1/distance) = 0.266447
  grid = 64 72 72
  stencil order = 5
  estimated absolute RMS force accuracy = 0.000147757
  estimated relative force accuracy = 1.02612e-05
  using double precision MKL FFT
  3d grid and FFT values/proc = 8096 2560
Per MPI rank memory allocation (min/avg/max) = 3.845 | 4.058 | 4.28 Mbytes
Step Temp E_pair E_mol TotEng Press Lx Ly Lz Fmax CPU CPULeft 
   50000    301.22937   -129669.39            0   -128948.24    151.14703    73.848122    77.853443    77.773037     2.983379            0            0 
   51000    297.53668    -129666.9            0   -128954.59    60.367705    73.848122    77.853443    77.773037    2.8406474     3.670939    22021.963 
   52000    299.61877   -129665.41            0   -128948.11    190.12492    73.848122    77.853443    77.773037     2.789047     7.644995     22927.34 
   53000      303.537   -129682.29            0   -128955.61   -7.6656814    73.848122    77.853443    77.773037    2.7433036    11.880174     23748.47 
   54000    298.65604   -129680.37            0   -128965.38    31.416119    73.848122    77.853443    77.773037    2.8240163    15.549534    23308.753 
   55000    301.80433   -129679.54            0   -128957.02   -1.9446053    73.848122    77.853443    77.773037    2.9639173    19.431945    23298.903 
   56000    301.66198   -129668.48            0   -128946.29    57.783845    73.848122    77.853443    77.773037    2.9731877    23.390715    23367.325 
   57000    299.93988   -129676.53            0   -128958.47   -63.333533    73.848122    77.853443    77.773037    2.9469286    27.129818    23227.001 
   58000    300.37044   -129674.43            0   -128955.34    15.227744    73.848122    77.853443    77.773037    2.6207226    31.187006    23359.068 
   59000    300.20088   -129682.31            0   -128963.62   -273.28309    73.848122    77.853443    77.773037    2.6962817    34.983832    23287.571 
   60000    300.46084    -129684.2            0   -128964.88    115.86989    73.848122    77.853443    77.773037    2.9451091    38.589294    23114.987 
   61000    302.16996   -129681.68            0   -128958.28    369.51534    73.848122    77.853443    77.773037    2.9332676    42.239119    22997.281 
   62000    297.71303   -129684.23            0    -128971.5   -132.20026    73.848122    77.853443    77.773037    2.9166146    46.048029    22977.967 
   63000    298.07961   -129681.31            0    -128967.7    41.440665    73.848122    77.853443    77.773037     2.869242    50.294762    23162.672 
   64000    299.68291   -129686.46            0   -128969.02    123.49006    73.848122    77.853443    77.773037    2.8172395    54.183131    23167.159 
   65000    301.01909   -129683.47            0   -128962.82    -12.08131    73.848122    77.853443    77.773037    3.1259439    57.823069    23071.405 
   66000    298.68575   -129688.71            0   -128973.65   -232.80183    73.848122    77.853443    77.773037    2.9369728    61.748907    23094.092 
   67000    297.23916   -129677.33            0   -128965.73    74.450532    73.848122    77.853443    77.773037    3.2106235    65.525242    23061.031 
   68000    300.03178   -129679.07            0   -128960.78    215.54899    73.848122    77.853443    77.773037    2.6722092    69.512777    23101.414 
   69000    300.88417   -129687.29            0   -128966.97   -121.48251    73.848122    77.853443    77.773037    2.6791351     73.48286    23131.631 
   70000     302.1831   -129682.55            0   -128959.11   -305.15535    73.848122    77.853443    77.773037    3.1156803     77.14445    23066.191 
   71000    299.68002    -129685.8            0   -128968.36   -121.69935    73.848122    77.853443    77.773037    2.8162872    80.805953    23006.609 
   72000    301.61347   -129687.41            0   -128965.34   -53.597533    73.848122    77.853443    77.773037    2.9674658    84.438509    22944.246 
   73000    297.98026   -129681.86            0   -128968.49   -419.05843    73.848122    77.853443    77.773037    2.6741396    88.499418    22998.306 
   74000    300.56209   -129676.63            0   -128957.07   -170.67934    73.848122    77.853443    77.773037    3.2696382    92.539078    23042.231 
   75000    300.52706   -129689.15            0   -128969.68   -164.93841    73.848122    77.853443    77.773037    2.5635901    96.291268    23013.613 
   76000    301.71803   -129685.02            0    -128962.7   -270.36691    73.848122    77.853443    77.773037    2.5862779     100.2811    23041.511 
   77000    298.36607   -129689.64            0   -128975.34   -50.756773    73.848122    77.853443    77.773037    3.1144457    104.21624    23054.949 
   78000    301.10889    -129686.7            0   -128965.84   -33.580688    73.848122    77.853443    77.773037     3.282029    108.29137    23097.003 
   79000    299.90133   -129683.99            0   -128966.02   -147.74674    73.848122    77.853443    77.773037     3.340047    112.31248    23124.752 
   80000    298.56419   -129688.28            0   -128973.51   -359.56624    73.848122    77.853443    77.773037    3.1090224    115.99882    23083.765 
   81000    299.31305    -129694.9            0   -128978.34   -189.90475    73.848122    77.853443    77.773037    3.0298302    119.61001    23030.716 
   82000    298.08117   -129682.46            0   -128968.84   -77.063727    73.848122    77.853443    77.773037    2.9292921     123.2067     22978.05 
   83000    299.30053   -129695.99            0   -128979.45   -218.96682    73.848122    77.853443    77.773037    3.0803602    127.03694    22970.589 
   84000    300.80714   -129689.38            0   -128969.24   -493.90105    73.848122    77.853443    77.773037    3.5254082    131.14232    23011.621 
   85000    301.72361   -129694.28            0   -128971.94   -163.62135    73.848122    77.853443    77.773037    2.9879016    134.91883    22994.024 
   86000    299.53228   -129693.79            0   -128976.71   -238.12803    73.848122    77.853443    77.773037    3.5338513    138.58238    22958.481 
   87000    297.95355   -129687.84            0   -128974.54   -293.57309    73.848122    77.853443    77.773037    2.8886132    142.64093    22988.321 
   88000    299.94868   -129696.78            0    -128978.7   -227.39854    73.848122    77.853443    77.773037    3.4774662    146.45891    22978.632 
   89000    299.05338   -129703.63            0   -128987.69    -232.2863    73.848122    77.853443    77.773037    2.5732374     150.5162    23005.823 
   90000    301.38497   -129699.66            0   -128978.14    -4.341671    73.848122    77.853443    77.773037    2.9026388    154.20795    22976.984 
   91000    301.75082   -129693.81            0   -128971.41   -420.29139    73.848122    77.853443    77.773037    2.7347783    157.90469    22950.098 
   92000    301.44639   -129697.78            0   -128976.11   -248.02864    73.848122    77.853443    77.773037    2.7413982    161.62767    22928.039 
   93000    299.54022   -129695.71            0    -128978.6   -191.26195    73.848122    77.853443    77.773037    2.6103202     165.3591    22908.004 
   94000    301.50694   -129706.93            0   -128985.12   -394.63296    73.848122    77.853443    77.773037    3.0187927    169.49428    22943.362 
   95000    302.48074   -129695.82            0   -128971.67     -172.238    73.848122    77.853443    77.773037    2.9185641    173.51072    22961.252 
   96000    297.79492   -129703.25            0   -128990.32   0.28824872    73.848122    77.853443    77.773037    3.0403424    177.26939    22944.826 
   97000    299.57819   -129695.42            0   -128978.22   -159.38643    73.848122    77.853443    77.773037    2.7786417    181.14349    22943.558 
   98000    299.68235   -129696.78            0   -128979.34   -408.74849    73.848122    77.853443    77.773037    2.8904941    184.83984     22920.14 
   99000    297.12936   -129697.46            0   -128986.12   -403.16408    73.848122    77.853443    77.773037    2.6495469    188.82999    22933.209 
  100000    300.04295   -129710.93            0   -128992.62   -95.244012    73.848122    77.853443    77.773037    2.7399469    192.84474    22948.524 
  101000    301.83395   -129703.05            0   -128980.45   -387.47469    73.848122    77.853443    77.773037    2.7224628    196.64431     22937.98 
  102000    299.28475   -129697.97            0   -128981.47   -561.59163    73.848122    77.853443    77.773037    3.0709796    200.30619    22911.947 
  103000    297.81634   -129700.02            0   -128987.04   -153.96989    73.848122    77.853443    77.773037    2.7674407    203.99176    22889.415 
  104000    302.48362   -129703.94            0   -128979.79   -206.12294    73.848122    77.853443    77.773037    2.7637646    207.94422     22896.97 
  105000    300.15996   -129711.07            0   -128992.48   -412.17325    73.848122    77.853443    77.773037    2.6360036    212.04046    22919.646 
  106000    302.01776   -129704.53            0   -128981.49   -392.16082    73.848122    77.853443    77.773037    2.8766821    215.76275    22901.675 
  107000    301.59156   -129704.38            0   -128982.37   -257.16291    73.848122    77.853443    77.773037    3.0408188    219.63177    22899.502 
  108000    297.47504   -129701.75            0   -128989.58   -165.99077    73.848122    77.853443    77.773037    3.3915503    223.47939    22895.079 
  109000    300.79967   -129705.98            0   -128985.85    -149.0623    73.848122    77.853443    77.773037    2.8106286    227.39879    22897.902 
  110000    301.59805   -129702.46            0   -128980.42   -221.00639    73.848122    77.853443    77.773037    3.1255028     231.3802     22906.64 
  111000      302.377   -129707.81            0   -128983.91    -488.8809    73.848122    77.853443    77.773037    2.9473656    235.08996    22888.513 
  112000    301.33967   -129706.57            0   -128985.16   -557.91945    73.848122    77.853443    77.773037     2.703655    238.74264    22865.384 
  113000    301.87273   -129704.65            0   -128981.96    -450.6791    73.848122    77.853443    77.773037    2.6894167     242.3565    22839.215 
  114000    296.01868   -129711.02            0   -129002.34   -388.83785    73.848122    77.853443    77.773037    3.0157168    246.12511    22828.104 
  115000    300.81318   -129706.68            0   -128986.53   -163.46047    73.848122    77.853443    77.773037    2.8666751    250.22295     22847.28 
  116000    299.24449   -129710.89            0   -128994.49   -645.88091    73.848122    77.853443    77.773037    2.6641189    253.94898    22832.322 
  117000    300.99332   -129708.44            0   -128987.86   -548.12977    73.848122    77.853443    77.773037    2.8129156    257.65218    22815.677 
  118000     301.2093   -129712.33            0   -128991.23   -394.81696    73.848122    77.853443    77.773037    2.7194992     261.5971      22820.5 
  119000    300.50071    -129710.7            0   -128991.29   -234.82568    73.848122    77.853443    77.773037    3.1698803     265.3412    22807.806 
  120000    299.86279   -129703.96            0   -128986.08   -749.80447    73.848122    77.853443    77.773037    2.7103947    269.36274    22818.873 
  121000    299.76053   -129705.32            0   -128987.69   -619.34552    73.848122    77.853443    77.773037    3.3781513    273.24724    22818.069 
  122000    300.54101   -129718.56            0   -128999.06   -301.52127    73.848122    77.853443    77.773037     2.952409    276.94636    22801.917 
  123000    301.84084   -129710.88            0   -128988.26    -389.0043    73.848122    77.853443    77.773037      2.72589    280.54286    22777.775 
  124000    300.12128   -129704.29            0   -128985.79    -571.7143    73.848122    77.853443    77.773037    2.9222387    284.17998     22757.44 
  125000    300.24447    -129713.3            0   -128994.51   -547.23605    73.848122    77.853443    77.773037    2.5054334    288.10517    22760.309 
  126000    303.38607   -129714.62            0   -128988.31   -273.51477    73.848122    77.853443    77.773037    2.9509832    292.19541    22775.863 
  127000    300.55465   -129705.43            0   -128985.89   -507.41678    73.848122    77.853443    77.773037    2.7163846      295.805    22753.935 
  128000     299.6393   -129708.24            0   -128990.89   -750.64613    73.848122    77.853443    77.773037    2.9970307    299.64778    22750.181 
  129000    299.21646   -129705.62            0   -128989.29   -471.09574    73.848122    77.853443    77.773037    2.9032573    303.38584    22738.576 
  130000    298.86211   -129716.82            0   -129001.34   -350.96774    73.848122    77.853443    77.773037    3.0822027    307.20905     22733.47 
  131000    302.15709   -129716.02            0   -128992.64   -519.57965    73.848122    77.853443    77.773037    3.0090479    311.16863     22738.36 
  132000    299.99514   -129714.35            0   -128996.16   -537.63051    73.848122    77.853443    77.773037    2.6601145    314.89369    22726.108 
  133000    301.53394   -129712.86            0   -128990.98   -351.84888    73.848122    77.853443    77.773037    2.8237532    318.69633    22719.592 
  134000    303.13521   -129720.75            0   -128995.03   -445.74866    73.848122    77.853443    77.773037    2.8317253    322.27363    22697.272 
  135000    298.98597   -129715.78            0      -129000   -99.303939    73.848122    77.853443    77.773037    2.8515766    325.93335    22681.127 
  136000    301.18609   -129711.49            0   -128990.44   -421.00117    73.848122    77.853443    77.773037    3.1183543    330.08117    22698.838 
  137000    300.11236   -129708.17            0   -128989.69   -309.54222    73.848122    77.853443    77.773037    2.8280549     333.8563    22690.716 
  138000    299.92001    -129713.9            0   -128995.88   -134.15271    73.848122    77.853443    77.773037    3.1663622    337.65231    22684.096 
  139000    297.08902   -129717.68            0   -129006.44   -596.03212    73.848122    77.853443    77.773037    3.2739468    341.52024    22682.316 
  140000    298.13072   -129715.75            0   -129002.02    -395.4765    73.848122    77.853443    77.773037    2.7221321    345.33716     22677.14 
  141000    297.51896   -129713.41            0   -129001.14   -429.38677    73.848122    77.853443    77.773037     3.098632    349.37204    22686.147 
  142000    298.99525   -129711.38            0   -128995.57   -402.30029    73.848122    77.853443    77.773037    2.8057113    353.30479    22688.312 
  143000     302.0216   -129713.53            0   -128990.48   -721.54858    73.848122    77.853443    77.773037    2.6327317    356.94209     22671.58 
  144000    299.32065    -129728.4            0   -129011.82   -280.65632    73.848122    77.853443    77.773037    2.8702444    360.69603    22662.455 
  145000    301.75663   -129721.45            0   -128999.03   -415.37951    73.848122    77.853443    77.773037    2.9269687    364.42871    22652.121 
  146000    298.81499   -129716.38            0   -129001.01   -484.81971    73.848122    77.853443    77.773037    3.3239977    368.35711    22653.963 
  147000    302.23235   -129719.18            0   -128995.63   -236.51681    73.848122    77.853443    77.773037    2.9435876     372.4307     22664.52 
  148000    298.94039   -129722.44            0   -129006.77   -547.87106    73.848122    77.853443    77.773037    2.8875288     376.1554    22653.767 
  149000    300.62834   -129719.27            0   -128999.56    -535.7564    73.848122    77.853443    77.773037    2.6308732    380.01051    22650.929 
  150000     299.3466   -129715.22            0   -128998.58   -488.63713    73.848122    77.853443    77.773037    2.9120661    383.87285    22648.498 
  151000    300.31765    -129718.4            0   -128999.43   -664.16659    73.848122    77.853443    77.773037    2.7182938    387.84014    22652.168 
  152000    301.16499   -129722.89            0    -129001.9   -570.74945    73.848122    77.853443    77.773037     3.291464    391.86571    22659.059 
  153000    298.63105   -129717.46            0   -129002.53   -650.46833    73.848122    77.853443    77.773037     3.470519    395.53417    22645.292 
  154000    302.01272   -129721.66            0   -128998.63   -799.99283    73.848122    77.853443    77.773037    2.5652027    399.19154     22631.09 
  155000    301.44002   -129716.99            0   -128995.33   -584.92701    73.848122    77.853443    77.773037    2.8298485    402.83829    22616.493 
  156000    302.54011   -129710.38            0   -128986.09   -684.89904    73.848122    77.853443    77.773037    2.9095517    406.64399    22610.941 
  157000    299.36346   -129729.65            0   -129012.96   -811.00921    73.848122    77.853443    77.773037     3.344793      410.806    22625.045 
  158000     301.4616   -129717.41            0    -128995.7   -444.33874    73.848122    77.853443    77.773037    3.0040508     414.5168    22614.195 
  159000     296.2479   -129722.73            0    -129013.5   -741.62689    73.848122    77.853443    77.773037    2.7886311    418.17815    22600.803 
  160000    303.70247   -129718.75            0   -128991.68   -910.66467    73.848122    77.853443    77.773037    2.9583374    422.17733    22605.677 
  161000    301.24261   -129727.43            0   -129006.25   -746.38178    73.848122    77.853443    77.773037    2.4889622    425.95756    22598.775 
  162000    297.55046   -129723.47            0   -129011.13   -550.78844    73.848122    77.853443    77.773037    2.9673394    429.97635    22604.471 
  163000    298.38088   -129722.23            0    -129007.9   -1004.4961    73.848122    77.853443    77.773037    3.1167272    433.75862    22597.673 
  164000    298.67827   -129725.37            0   -129010.32   -508.70965    73.848122    77.853443    77.773037    2.7145974    437.25975    22576.412 
  165000    303.12615   -129728.36            0   -129002.66   -640.01474    73.848122    77.853443    77.773037    3.0001295    440.88517    22561.819 
  166000    300.52822   -129725.52            0   -129006.04   -824.05186    73.848122    77.853443    77.773037    2.7701495    444.47372    22545.547 
  167000    300.52546   -129727.06            0   -129007.59   -669.95496    73.848122    77.853443    77.773037    2.9775213    448.47711    22550.349 
  168000    303.79388   -129722.47            0   -128995.18    -404.9661    73.848122    77.853443    77.773037    3.0660168     452.5644    22559.185 
  169000    300.43885    -129724.9            0   -129005.64   -861.44804    73.848122    77.853443    77.773037    2.8194373    456.29503    22550.177 
  170000    296.60141    -129722.9            0   -129012.83    -743.1972    73.848122    77.853443    77.773037    2.7698523    460.23009    22551.275 
  171000    298.00542   -129723.79            0   -129010.36   -748.11876    73.848122    77.853443    77.773037    3.4454949    464.06462    22547.404 
  172000    300.78147   -129721.83            0   -129001.75   -519.69356    73.848122    77.853443    77.773037    2.9513343    467.90031     22543.59 
  173000     304.6825   -129728.25            0   -128998.83   -749.38642    73.848122    77.853443    77.773037    3.5643711    472.02896    22553.774 
  174000    296.97976   -129726.63            0   -129015.65   -870.22142    73.848122    77.853443    77.773037    2.8858295    475.67124    22540.679 
  175000    300.17406   -129719.44            0   -129000.82   -843.62804    73.848122    77.853443    77.773037    2.6194888    479.36617     22530.21 
  176000    298.53244   -129714.55            0   -128999.85    -836.8322    73.848122    77.853443    77.773037    3.4392988    483.01976    22517.921 
  177000    299.37757   -129724.48            0   -129007.76   -700.80941    73.848122    77.853443    77.773037    2.9176828    486.77004     22510.24 
  178000    301.58698   -129733.21            0   -129011.21   -668.49294    73.848122    77.853443    77.773037    2.9916917    490.89975    22520.026 
  179000    299.86085   -129722.16            0   -129004.29   -600.56642    73.848122    77.853443    77.773037     2.520777    494.60172    22510.129 
  180000    301.40528   -129727.58            0   -129006.01   -721.22291    73.848122    77.853443    77.773037    3.0152836    498.20517     22495.88 
  181000    298.32779   -129724.59            0   -129010.38   -534.44213    73.848122    77.853443    77.773037    2.7518452    502.12413    22495.928 
  182000    298.82204    -129726.6            0   -129011.22   -675.64823    73.848122    77.853443    77.773037    3.3908281     505.8767    22488.519 
  183000    298.00969   -129729.66            0   -129016.22   -391.24839    73.848122    77.853443    77.773037    3.0551278    509.98729    22496.958 
  184000    299.64486   -129722.42            0   -129005.07   -770.44404    73.848122    77.853443    77.773037    2.9163881      513.738    22489.456 
  185000    298.41268   -129721.96            0   -129007.55   -679.69933    73.848122    77.853443    77.773037    3.4622117    517.33119    22475.166 
  186000    297.29569   -129720.39            0   -129008.65   -890.12213    73.848122    77.853443    77.773037    2.8663125    520.98891    22463.816 
  187000    297.14879   -129719.87            0   -129008.49   -913.46033    73.848122    77.853443    77.773037    2.9480299    524.67635     22453.85 
  188000    299.36396   -129730.66            0   -129013.97    -917.5274    73.848122    77.853443    77.773037    3.3082947    528.63109     22455.33 
  189000     299.2876   -129728.43            0   -129011.93   -484.35525    73.848122    77.853443    77.773037    2.7663182    532.72715    22462.689 
  190000    301.12556   -129721.81            0   -129000.91   -718.67455    73.848122    77.853443    77.773037    2.6131885    536.33798    22449.575 
  191000    303.17563   -129716.22            0   -128990.41   -941.37689    73.848122    77.853443    77.773037    2.6983119    540.18894    22446.574 
  192000    299.61904   -129726.76            0   -129009.46    -769.2415    73.848122    77.853443    77.773037    3.0133527    544.00291    22442.035 
  193000    297.53345   -129722.83            0   -129010.53   -858.71004    73.848122    77.853443    77.773037    2.9818495      547.742     22434.44 
  194000      302.676   -129728.05            0   -129003.43   -955.40546    73.848122    77.853443    77.773037    3.6201946    551.83142    22441.144 
  195000    299.08471   -129725.28            0   -129009.26   -696.86576    73.848122    77.853443    77.773037    3.1069192    555.43187    22427.956 
  196000    300.10145   -129724.77            0   -129006.32    -583.2099    73.848122    77.853443    77.773037    3.3910952    559.04797    22415.526 
  197000    298.90594    -129722.1            0   -129006.51   -775.74048    73.848122    77.853443    77.773037    3.3188273    562.66513    22403.258 
  198000    298.44244   -129726.64            0   -129012.16    -835.3033    73.848122    77.853443    77.773037    3.1070381    566.37272    22394.684 
  199000    303.29316   -129721.48            0   -128995.39   -633.72525    73.848122    77.853443    77.773037    2.6299461    570.53589    22404.064 
  200000    299.02015   -129720.53            0   -129004.67   -966.11666    73.848122    77.853443    77.773037    3.1938468    574.43162    22402.833 
  201000    299.75933   -129730.12            0   -129012.49   -817.30804    73.848122    77.853443    77.773037    2.9641971    578.14817    22394.627 
  202000    301.19067   -129728.69            0   -129007.64   -859.59448    73.848122    77.853443    77.773037    3.1777963    582.04939    22393.584 
  203000    300.74018   -129735.31            0   -129015.33   -858.23978    73.848122    77.853443    77.773037    3.3511284    585.76973    22385.592 
  204000    299.77351   -129725.22            0   -129007.55   -790.95163    73.848122    77.853443    77.773037    2.8203325    589.74629    22387.382 
  205000    302.39214   -129720.89            0   -128996.96   -915.85519    73.848122    77.853443    77.773037    2.8352603    593.57437    22383.498 
  206000    298.55148   -129730.07            0   -129015.33   -894.04696    73.848122    77.853443    77.773037    2.7756434    597.29114    22375.445 
  207000    301.40541   -129729.31            0   -129007.73   -475.36662    73.848122    77.853443    77.773037    2.9139069    600.95665     22365.54 
  208000    298.62226   -129735.24            0   -129020.33    -830.5019    73.848122    77.853443    77.773037    3.2708335    604.58393      22354.3 
  209000    300.11894   -129731.34            0   -129012.84   -792.03628    73.848122    77.853443    77.773037    3.1302571    608.56481    22356.145 
  210000    300.47061   -129727.96            0   -129008.63   -622.87191    73.848122    77.853443    77.773037    3.0982643    612.67081    22362.485 
  211000    300.87157   -129724.23            0   -129003.93   -622.14054    73.848122    77.853443    77.773037    2.9034604     616.3359    22352.704 
  212000    298.00701   -129729.22            0   -129015.79   -773.88536    73.848122    77.853443    77.773037    3.4475295    620.22725    22351.152 
  213000    302.18909   -129732.09            0   -129008.64   -799.40991    73.848122    77.853443    77.773037    2.8272213    624.10711    22349.161 
  214000    301.34169   -129732.99            0   -129011.57   -1093.3209    73.848122    77.853443    77.773037    2.7099694    627.99295    22347.359 
  215000    299.14885   -129736.66            0   -129020.49   -862.00202    73.848122    77.853443    77.773037      3.65082    632.02691     22350.77 
  216000    305.09714   -129739.29            0   -129008.87   -873.24272    73.848122    77.853443    77.773037    3.4081231    635.77273    22343.965 
  217000    299.46222   -129720.61            0   -129003.69   -411.30139    73.848122    77.853443    77.773037    3.3591346    639.29195    22329.281 
  218000    298.90517    -129733.5            0   -129017.92   -682.51585    73.848122    77.853443    77.773037    2.5040403    642.90158    22317.869 
  219000    300.51117   -129723.75            0   -129004.32   -902.91608    73.848122    77.853443    77.773037    3.3221324    646.63164    22310.705 
  220000    299.91935   -129728.65            0   -129010.64   -810.63268    73.848122    77.853443    77.773037    3.1224461    650.89392    22321.833 
  221000    298.48683   -129726.23            0   -129011.64   -847.57196    73.848122    77.853443    77.773037    2.8284714    654.68171    22316.606 
  222000    297.29745   -129725.26            0   -129013.53   -1012.7521    73.848122    77.853443    77.773037    2.6863201    658.33956    22306.994 
  223000    299.38292   -129733.42            0   -129016.69   -707.44974    73.848122    77.853443    77.773037    2.8611499    662.26513    22306.468 
  224000    298.69472   -129727.37            0   -129012.29   -791.22703    73.848122    77.853443    77.773037    3.1745055     666.0198     22300.18 
  225000    294.80443   -129731.45            0   -129025.68    -770.2687    73.848122    77.853443    77.773037    2.7607695    669.99101     22301.13 
  226000    298.49124   -129729.35            0   -129014.76   -903.56785    73.848122    77.853443    77.773037     2.866155    673.83736    22297.891 
  227000    296.66631   -129732.83            0    -129022.6   -423.04222    73.848122    77.853443    77.773037    2.6797917    677.52532    22289.435 
  228000    298.79693   -129728.03            0    -129012.7   -905.63469    73.848122    77.853443    77.773037    2.9229453    681.15951    22279.273 
  229000    299.66541   -129727.82            0   -129010.41   -1059.8084    73.848122    77.853443    77.773037    2.7771446    684.86231    22271.416 
  230000    300.50781   -129736.06            0   -129016.64   -462.26669    73.848122    77.853443    77.773037    3.0326644    689.02815    22278.577 
  231000    301.02978   -129738.36            0   -129017.69   -1060.3005    73.848122    77.853443    77.773037    2.7671479    692.87314    22275.297 
  232000    300.99223   -129730.08            0   -129009.49   -748.32734    73.848122    77.853443    77.773037    2.9340322    696.48554    22264.576 
  233000    301.16916   -129726.48            0   -129005.47    -762.4086    73.848122    77.853443    77.773037    3.1220651    700.26865    22259.359 
  234000    298.07131   -129738.54            0   -129024.95   -1019.0102    73.848122    77.853443    77.773037    3.0044071    704.18083    22258.238 
  235000    302.49194   -129740.13            0   -129015.96   -835.92575    73.848122    77.853443    77.773037    3.5212648    708.22074    22261.101 
  236000    296.03884   -129730.03            0    -129021.3   -759.80135    73.848122    77.853443    77.773037    3.3964959    712.22654    22262.823 
  237000    301.52389   -129736.05            0   -129014.19   -947.75546    73.848122    77.853443    77.773037    3.1430963    715.85324      22252.7 
  238000    296.11268   -129728.76            0   -129019.86   -1001.9743    73.848122    77.853443    77.773037    3.2261495    719.39248    22239.942 
  239000    300.46303   -129729.32            0      -129010    -630.5624    73.848122    77.853443    77.773037    2.9265752    723.03335    22230.406 
  240000    301.17678   -129727.83            0    -129006.8   -797.03382    73.848122    77.853443    77.773037    2.9592725    726.86609      22226.8 
  241000    300.33468   -129738.47            0   -129019.46    -772.2733    73.848122    77.853443    77.773037    2.9620289    730.97328    22231.538 
  242000    301.43888   -129729.59            0   -129007.94   -1007.6142    73.848122    77.853443    77.773037    3.0400051    734.64107    22222.892 
  243000    297.75602   -129732.15            0   -129019.32   -768.52161    73.848122    77.853443    77.773037    2.5581543    738.40646    22217.235 
  244000     302.3252   -129739.49            0   -129015.71    -665.0869    73.848122    77.853443    77.773037    3.2669619    742.32855    22216.286 
  245000    300.92547   -129745.51            0   -129025.09   -934.92268    73.848122    77.853443    77.773037    3.0627629     746.0985    22210.779 
  246000    300.87229    -129739.3            0      -129019   -1031.5733    73.848122    77.853443    77.773037    2.9800568    750.12884    22212.999 
  247000    296.38941   -129728.56            0   -129018.99    -852.7163    73.848122    77.853443    77.773037    2.8353086    753.88805    22207.169 
  248000    300.17582   -129738.01            0   -129019.38   -945.45917    73.848122    77.853443    77.773037      3.00271    757.57524     22199.25 
  249000     299.4034   -129743.26            0   -129026.48   -811.14508    73.848122    77.853443    77.773037    3.2540614    761.12115    22187.255 
  250000    300.33433   -129733.26            0   -129014.25    -1106.571    73.848122    77.853443    77.773037     2.917239    764.77382    22178.441 
  251000    299.96334   -129735.33            0   -129017.21   -798.55663    73.848122    77.853443    77.773037    2.8265485    768.83507    22181.466 
  252000    299.05111   -129730.32            0   -129014.39   -879.76936    73.848122    77.853443    77.773037    3.2445135    772.87749     22183.88 
  253000    300.03201    -129738.2            0   -129019.91    -880.8422    73.848122    77.853443    77.773037    2.8716326    776.45132    22172.849 
  254000     300.9184   -129739.15            0   -129018.74   -724.02941    73.848122    77.853443    77.773037    3.7304844    780.30451    22169.828 
  255000    299.85625   -129737.73            0   -129019.86   -636.30495    73.848122    77.853443    77.773037    2.9130435    784.09784    22165.107 
  256000    299.71936   -129740.71            0   -129023.17   -971.82169    73.848122    77.853443    77.773037    3.0045279    787.99507    22163.318 
  257000    302.00826   -129736.99            0   -129013.97   -869.10976    73.848122    77.853443    77.773037     2.710743    791.92436    22162.405 
  258000    297.61262      -129740            0   -129027.51   -928.83971    73.848122    77.853443    77.773037    2.7313969    795.53401    22152.562 
  259000     296.9638   -129735.14            0    -129024.2   -716.07209    73.848122    77.853443    77.773037    3.7696034    799.15085    22142.979 
  260000    299.44904   -129739.06            0   -129022.17   -601.99928    73.848122    77.853443    77.773037    3.3371068    802.80138    22134.381 
  261000    301.13773   -129734.46            0   -129013.53   -770.94043    73.848122    77.853443    77.773037    2.8149285     806.5971    22129.813 
  262000    303.32479    -129738.8            0   -129012.64   -843.71172    73.848122    77.853443    77.773037      2.67174    810.78744    22136.027 
  263000    298.68343   -129741.96            0    -129026.9   -650.64072    73.848122    77.853443    77.773037     2.828733    814.52701    22129.896 
  264000    303.56588   -129737.41            0   -129010.66    -931.4855    73.848122    77.853443    77.773037    3.0767373    818.18741    22121.647 
  265000    299.68753    -129735.1            0   -129017.64   -469.95155    73.848122    77.853443    77.773037    2.7985663    822.13737    22121.231 
  266000     300.8875   -129739.91            0   -129019.58   -815.45606    73.848122    77.853443    77.773037    2.8797691    825.85852    22114.656 
  267000    299.45042   -129748.05            0   -129031.16   -518.20609    73.848122    77.853443    77.773037    3.0239623    829.88682    22116.292 
  268000      300.238   -129737.57            0   -129018.79   -1088.9267    73.848122    77.853443    77.773037    3.3995269    833.76149    22113.803 
  269000    300.86068   -129744.82            0   -129024.55   -896.45329    73.848122    77.853443    77.773037    3.3565342    837.43959    22106.111 
  270000    300.23165   -129739.85            0   -129021.08   -658.04068    73.848122    77.853443    77.773037    2.9986642    841.16578    22099.719 
  271000    297.96933   -129740.91            0   -129027.56   -637.99196    73.848122    77.853443    77.773037    2.8631078    844.87202     22092.83 
  272000    299.37807   -129740.88            0   -129024.17   -911.76241    73.848122    77.853443    77.773037    2.8853664    848.95385    22095.745 
  273000    298.06142   -129739.79            0   -129026.22    -682.9033    73.848122    77.853443    77.773037    3.0188393    852.95409    22096.483 
  274000    298.33253   -129736.96            0   -129022.74   -835.95342    73.848122    77.853443    77.773037     2.616274    856.57408    22087.374 
  275000    297.20511   -129741.89            0   -129030.37   -573.31108    73.848122    77.853443    77.773037    2.9875172    860.41244    22083.919 
  276000    300.65073   -129734.81            0   -129015.04   -776.14083    73.848122    77.853443    77.773037    2.9087714    864.18369    22078.746 
  277000    299.98615   -129744.25            0   -129026.08   -956.46573    73.848122    77.853443    77.773037    2.8408673     868.2457     22080.98 
  278000    301.25422   -129742.21            0      -129021   -722.43713    73.848122    77.853443    77.773037    3.0109416    872.13155    22078.699 
  279000    303.98035   -129739.27            0   -129011.54   -778.57509    73.848122    77.853443    77.773037    3.0496929    875.71849    22068.871 
  280000    301.30841   -129744.73            0   -129023.39   -733.08676    73.848122    77.853443    77.773037    3.1939636    879.32765    22059.655 
  281000    299.65668   -129753.89            0    -129036.5   -1079.4735    73.848122    77.853443    77.773037    2.7221916    882.91405    22049.918 
  282000     302.3707    -129746.7            0   -129022.82   -919.77697    73.848122    77.853443    77.773037    3.4333375    886.71861    22045.659 
  283000    302.75379   -129739.34            0   -129014.54   -938.96417    73.848122    77.853443    77.773037    3.2251925    890.92022    22051.232 
  284000    301.10717   -129752.13            0   -129031.27    -675.9591    73.848122    77.853443    77.773037     2.736746    894.64403    22044.947 
  285000    299.61595   -129744.58            0   -129027.29   -939.55173    73.848122    77.853443    77.773037    2.7815099    898.34844    22038.208 
  286000    301.49922   -129735.53            0   -129013.73   -1014.6151    73.848122    77.853443    77.773037    2.7464784    902.27894    22037.016 
  287000    300.16875   -129746.78            0   -129028.17   -850.52173    73.848122    77.853443    77.773037    2.7181154    906.03793    22031.631 
  288000    302.19475   -129738.06            0    -129014.6   -939.83033    73.848122    77.853443    77.773037    2.7966441    910.06025    22032.635 
  289000    298.92395   -129738.61            0   -129022.98   -1027.5096    73.848122    77.853443    77.773037    3.5375854    913.81492    22027.146 
  290000    302.36378   -129743.71            0   -129019.84   -967.31019    73.848122    77.853443    77.773037    2.9412882    917.56054    22021.453 
  291000    298.55144   -129743.59            0   -129028.85   -656.66659    73.848122    77.853443    77.773037    3.1795855    921.05606      22009.8 
  292000    301.30794   -129742.75            0   -129021.41   -949.83993    73.848122    77.853443    77.773037    3.6425282    924.75852    22003.139 
  293000    299.11565   -129739.29            0    -129023.2   -733.62075    73.848122    77.853443    77.773037    2.7167623    928.83486    22005.359 
  294000    297.83494   -129740.22            0   -129027.19   -829.08958    73.848122    77.853443    77.773037    2.7401493    932.88938    22007.013 
  295000    296.97796      -129746            0   -129035.02   -1074.8632    73.848122    77.853443    77.773037    2.7705424    936.61682    22000.938 
  296000    297.35249   -129735.94            0   -129024.07   -1011.9072    73.848122    77.853443    77.773037    2.7856955    940.47017    21997.827 
  297000    299.00528   -129745.06            0   -129029.23   -1048.5585    73.848122    77.853443    77.773037    3.1123101    944.32546    21994.755 
  298000    299.73947   -129732.25            0   -129014.67   -1008.5537    73.848122    77.853443    77.773037    2.9809853    948.22077    21992.604 
  299000    300.68227    -129739.3            0   -129019.46   -1136.6478    73.848122    77.853443    77.773037    2.7040283    952.17919    21991.898 
  300000    300.63847      -129737            0   -129017.27   -741.48266    73.848122    77.853443    77.773037     2.770205    955.87472    21985.119 
  301000    300.74029   -129751.67            0   -129031.69   -1126.8961    73.848122    77.853443    77.773037     2.662014    959.56906    21978.337 
  302000    301.27301   -129739.29            0   -129018.03   -1056.6334    73.848122    77.853443    77.773037    2.9586564    963.17597    21969.585 
  303000    299.25897   -129744.79            0   -129028.36     -1050.61    73.848122    77.853443    77.773037    2.6353669    967.05267    21967.003 
  304000    302.55302   -129740.64            0   -129016.32   -758.70129    73.848122    77.853443    77.773037    2.8383604    971.22775     21971.16 
  305000    300.59945   -129744.26            0   -129024.62   -1003.5706    73.848122    77.853443    77.773037    3.1516347    974.89113    21963.724 
  306000    302.07892   -129745.27            0   -129022.08   -811.87519    73.848122    77.853443    77.773037    3.1473101    978.59283    21957.177 
  307000    299.46762   -129747.82            0   -129030.89   -737.89662    73.848122    77.853443    77.773037    3.0822197    982.46895    21954.549 
  308000     302.3812   -129746.99            0   -129023.08   -783.86116    73.848122    77.853443    77.773037    2.7516639     986.1443    21947.444 
  309000    300.87118   -129745.38            0   -129025.09    -1055.515    73.848122    77.853443    77.773037    3.0195567    990.21728    21949.179 
  310000    301.32069   -129741.67            0    -129020.3   -858.79932    73.848122    77.853443    77.773037    2.9179346    994.00281    21944.524 
  311000    301.50892   -129737.66            0   -129015.84   -892.73968    73.848122    77.853443    77.773037    3.0617994    997.64803    21936.789 
  312000    300.98826   -129741.41            0   -129020.83   -905.84477    73.848122    77.853443    77.773037    2.8603434    1001.2746    21928.679 
  313000    302.76604    -129740.6            0   -129015.77   -1055.0228    73.848122    77.853443    77.773037    2.6811265    1004.9837    21922.402 
  314000    298.64973   -129746.37            0   -129031.39   -711.31622    73.848122    77.853443    77.773037    2.8918808    1009.0176      21923.2 
  315000     300.4911   -129743.21            0   -129023.83   -1106.4169    73.848122    77.853443    77.773037    2.6487562    1013.0301      21923.5 
  316000    302.17679   -129746.61            0   -129023.19   -951.12044    73.848122    77.853443    77.773037    2.8583257    1016.6385    21915.056 
  317000    298.04984   -129741.62            0   -129028.08   -871.68676    73.848122    77.853443    77.773037    2.7122111     1020.501    21912.106 
  318000     300.8155   -129740.25            0   -129020.09   -638.71825    73.848122    77.853443    77.773037    3.7972418    1024.2894    21907.563 
  319000    300.73143    -129747.7            0   -129027.74    -1063.039    73.848122    77.853443    77.773037    3.3273029    1028.2026    21905.685 
  320000    300.44114   -129746.92            0   -129027.66   -713.31948    73.848122    77.853443    77.773037    3.2367391    1032.2146    21905.887 
  321000     298.9064   -129747.12            0   -129031.53   -753.31209    73.848122    77.853443    77.773037    3.3532846    1035.7936    21896.906 
  322000    303.13036    -129741.3            0    -129015.6   -744.78015    73.848122    77.853443    77.773037    2.9373627    1039.4202    21888.967 
  323000    299.70154   -129743.31            0   -129025.82   -977.38599    73.848122    77.853443    77.773037    2.8672176    1043.1747    21883.742 
  324000    298.19255   -129745.48            0    -129031.6   -783.71263    73.848122    77.853443    77.773037    3.0239351    1046.9408    21878.769 
  325000    301.37465   -129747.41            0   -129025.91   -970.57238    73.848122    77.853443    77.773037    2.9671899    1051.1627    21883.295 
  326000    301.48673   -129753.11            0   -129031.34   -1036.5505    73.848122    77.853443    77.773037    2.9566693     1054.936    21878.455 
  327000     298.6507   -129743.11            0   -129028.13   -961.53324    73.848122    77.853443    77.773037    3.0454711    1058.7246    21873.938 
  328000    302.80792   -129746.79            0   -129021.86   -994.53597    73.848122    77.853443    77.773037    3.3035736    1062.6289    21871.809 
  329000    299.87044   -129740.73            0   -129022.83    -1071.096    73.848122    77.853443    77.773037    2.7351593    1066.4079    21867.094 
  330000    299.44452   -129738.76            0   -129021.88   -929.72508    73.848122    77.853443    77.773037    2.7449436    1070.3934    21866.609 
  331000    298.72654   -129747.67            0   -129032.51   -790.82292    73.848122    77.853443    77.773037    2.7328589    1074.3349    21865.201 
  332000    300.28748   -129741.22            0   -129022.33   -1331.0626    73.848122    77.853443    77.773037     2.902583    1077.9113    21856.372 
  333000    302.61376   -129750.56            0    -129026.1   -1046.3563    73.848122    77.853443    77.773037    2.7218732    1081.5816    21849.478 
  334000     301.5336   -129743.46            0   -129021.58   -1178.0294    73.848122    77.853443    77.773037    2.7493224    1085.2974    21843.521 
  335000    301.88792   -129736.15            0   -129013.42   -981.48315    73.848122    77.853443    77.773037    2.7453024    1089.3117    21843.566 
  336000      299.554   -129750.03            0   -129032.89   -790.94957    73.848122    77.853443    77.773037    2.8675311    1093.2703     21842.47 
  337000    303.30543   -129737.62            0    -129011.5    -958.1329    73.848122    77.853443    77.773037    3.1274336    1096.9786    21836.372 
  338000    300.13352   -129745.24            0   -129026.72   -766.13759    73.848122    77.853443    77.773037    2.7282113     1100.781    21832.156 
  339000    297.01948   -129748.42            0   -129037.35   -1206.0435    73.848122    77.853443    77.773037    3.0167312    1104.5547    21827.378 
  340000    301.13578    -129744.1            0   -129023.17   -907.66554    73.848122    77.853443    77.773037    2.6899594    1108.5727    21827.415 
  341000    301.01816   -129752.32            0   -129031.67   -957.94824    73.848122    77.853443    77.773037     2.920756    1112.6408    21828.406 
  342000    301.21554   -129745.75            0   -129024.63   -935.20111    73.848122    77.853443    77.773037    2.8800219    1116.3396    21822.145 
  343000    297.47757   -129750.36            0   -129038.19   -1256.6317    73.848122    77.853443    77.773037    2.8311949    1119.9598    21814.371 
  344000    300.34024   -129743.63            0    -129024.6   -932.83049    73.848122    77.853443    77.773037    3.0155102    1123.6133     21807.27 
  345000    299.77658   -129747.23            0   -129029.56   -949.26735    73.848122    77.853443    77.773037     3.388095    1127.4547    21803.827 
  346000    297.48946   -129750.46            0   -129038.26   -968.83029    73.848122    77.853443    77.773037    3.0504848    1131.5978    21806.195 
  347000    301.56253    -129743.5            0   -129021.55    -1049.245    73.848122    77.853443    77.773037    3.1170449    1135.2281    21798.672 
  348000    301.04724   -129751.37            0   -129030.65   -964.07715    73.848122    77.853443    77.773037    2.9916119    1139.0407    21794.664 
  349000    301.07898   -129750.98            0   -129030.19   -892.94016    73.848122    77.853443    77.773037    3.0727266    1142.9637    21792.763 
  350000     304.0174   -129743.72            0   -129015.89   -737.79287    73.848122    77.853443    77.773037    2.8696644    1146.7873    21788.958 
  351000    302.03235   -129755.06            0   -129031.99   -1065.7795    73.848122    77.853443    77.773037     2.578412     1150.879    21790.231 
  352000    300.18496   -129741.09            0   -129022.44   -641.36827    73.848122    77.853443    77.773037    2.9683417    1154.6276    21784.994 
  353000    299.32494   -129742.37            0   -129025.78   -972.91515    73.848122    77.853443    77.773037    3.2650794    1158.2011    21776.474 
  354000    299.93786    -129753.9            0   -129035.84   -980.07118    73.848122    77.853443    77.773037     3.114134     1161.757    21767.658 
  355000    300.16061   -129742.02            0   -129023.43   -1001.4295    73.848122    77.853443    77.773037    2.8872244    1165.4611    21761.642 
  356000    301.93273   -129738.23            0   -129015.39   -851.52882    73.848122    77.853443    77.773037    3.1023237    1169.4761    21761.428 
  357000    299.66709   -129751.99            0   -129034.57    -874.1811    73.848122    77.853443    77.773037    2.7157304    1173.4179    21759.831 
  358000    300.37274   -129740.85            0   -129021.75   -592.80431    73.848122    77.853443    77.773037    2.9399173    1176.9819    21751.238 
  359000    298.32313   -129743.55            0   -129029.36   -1085.3436    73.848122    77.853443    77.773037    2.9959902    1180.8222    21747.764 
  360000    300.66245   -129745.51            0   -129025.72   -879.44671    73.848122    77.853443    77.773037    2.7495113    1184.6785    21744.583 
  361000    296.70245   -129749.86            0   -129039.55   -765.55649    73.848122    77.853443    77.773037    2.8888884    1188.6263     21743.07 
  362000    299.37469    -129750.6            0   -129033.89   -1230.4407    73.848122    77.853443    77.773037    2.8125757    1192.6153    21742.295 
  363000    299.31498   -129742.15            0   -129025.58   -644.29129    73.848122    77.853443    77.773037    3.4940327    1196.3608    21737.073 
  364000    301.51334   -129749.38            0   -129027.55   -695.02207    73.848122    77.853443    77.773037    2.9056371    1199.9222    21728.528 
  365000    301.79189   -129748.93            0   -129026.43   -639.27454    73.848122    77.853443    77.773037    2.8558532    1203.6812    21723.579 
  366000    298.00305   -129752.66            0   -129039.23   -458.36545    73.848122    77.853443    77.773037    2.7871343    1207.4868    21719.478 
  367000    301.79043    -129750.3            0    -129027.8   -855.50759    73.848122    77.853443    77.773037    2.9182785    1211.6027     21720.94 
  368000    298.30566   -129746.89            0   -129032.74   -856.46472    73.848122    77.853443    77.773037    2.9623581    1215.3124     21715.11 
  369000    301.29661    -129745.8            0   -129024.49   -673.80046    73.848122    77.853443    77.773037    2.7623589    1219.0891    21710.486 
  370000    299.41502   -129746.41            0    -129029.6    -828.8801    73.848122    77.853443    77.773037    2.8672182    1222.9942    21708.147 
  371000    300.71202   -129743.93            0   -129024.01   -522.50942    73.848122    77.853443    77.773037    3.1424159    1226.9107        21706 
  372000    298.39776   -129756.65            0   -129042.28   -789.71793    73.848122    77.853443    77.773037    3.2433883    1230.8963     21705.06 
  373000    299.06956   -129741.38            0    -129025.4   -919.78583    73.848122    77.853443    77.773037    2.9675576    1234.5723     21698.66 
  374000    295.03323   -129742.78            0   -129036.47   -1043.5366    73.848122    77.853443    77.773037    3.0273979    1238.2434     21692.19 
  375000    299.01955   -129751.74            0   -129035.87   -644.42535    73.848122    77.853443    77.773037    3.2870197     1241.927    21685.955 
  376000    298.78631   -129751.53            0   -129036.23   -777.19431    73.848122    77.853443    77.773037    2.7207085    1245.5731    21679.086 
  377000    302.66191   -129747.52            0   -129022.94    -856.2741    73.848122    77.853443    77.773037    2.8369147    1249.7585     21681.59 
  378000    301.35405   -129742.88            0   -129021.43    -1059.671    73.848122    77.853443    77.773037    2.9776026    1253.6113    21678.303 
  379000     299.1756   -129751.19            0   -129034.95   -862.44085    73.848122    77.853443    77.773037    3.0664876    1257.3125    21672.398 
  380000    300.96504   -129747.35            0   -129026.83   -722.44043    73.848122    77.853443    77.773037    2.8391569     1261.108    21668.128 
  381000    298.08785   -129743.99            0   -129030.36   -1244.0901    73.848122    77.853443    77.773037    3.1031511    1264.9103    21663.977 
  382000    299.33443   -129746.19            0   -129029.57   -786.41924    73.848122    77.853443    77.773037    3.0860363    1268.8906    21662.867 
  383000     300.0573   -129745.12            0   -129026.78   -995.37001    73.848122    77.853443    77.773037    2.6106661    1272.7394    21659.502 
  384000    299.30074   -129748.31            0   -129031.78   -633.91635    73.848122    77.853443    77.773037    3.0724115    1276.3219    21651.616 
  385000    301.33841   -129755.95            0   -129034.54   -1135.2768    73.848122    77.853443    77.773037    2.8918636    1280.0107    21645.554 
  386000    301.47291   -129750.96            0   -129029.22   -768.76626    73.848122    77.853443    77.773037    3.2621714    1283.6778    21639.141 
  387000     296.1434   -129750.72            0   -129041.74     -807.025    73.848122    77.853443    77.773037    2.5699683    1287.6809    21638.389 
  388000    299.37221   -129745.35            0   -129028.64   -906.84455    73.848122    77.853443    77.773037    2.9205335    1291.7284    21638.361 
  389000    299.78845   -129751.35            0   -129033.65   -672.98739    73.848122    77.853443    77.773037    2.9662763     1295.362    21631.399 
  390000    300.78747   -129746.26            0   -129026.16   -838.41583    73.848122    77.853443    77.773037    3.3083458    1299.1336    21626.753 
  391000     299.7249   -129751.39            0   -129033.84   -747.53408    73.848122    77.853443    77.773037    3.0920744    1302.9088    21622.173 
  392000    297.91008   -129743.34            0   -129030.13   -613.59222    73.848122    77.853443    77.773037    3.5712202    1306.6923    21617.734 
  393000     303.8901   -129751.84            0   -129024.32   -672.22852    73.848122    77.853443    77.773037    3.3505225    1310.7912      21618.5 
  394000    298.23745   -129745.52            0   -129031.53   -1000.5886    73.848122    77.853443    77.773037     2.921655    1314.5407    21613.495 
  395000     298.0044   -129748.52            0   -129035.09   -1021.8696    73.848122    77.853443    77.773037    2.6631877    1318.2379    21607.639 
  396000    301.34164   -129743.65            0   -129022.23   -1099.6493    73.848122    77.853443    77.773037    3.0497304    1321.8947    21601.135 
  397000    296.42354   -129749.19            0   -129039.54   -731.71906    73.848122    77.853443    77.773037    2.9410388    1325.6233    21595.817 
  398000    300.12047   -129749.06            0   -129030.57   -774.46959    73.848122    77.853443    77.773037    2.7939132    1329.7654    21597.224 
  399000    302.67737   -129749.67            0   -129025.05   -952.39884    73.848122    77.853443    77.773037    3.3121538    1333.5526    21592.853 
  400000    300.23168   -129748.57            0   -129029.81   -700.22652    73.848122    77.853443    77.773037    3.5649177    1337.2056    21586.319 
  401000    299.71919   -129743.05            0   -129025.52   -796.84239    73.848122    77.853443    77.773037    3.5287742    1341.1227    21584.051 
  402000    301.78282   -129748.25            0   -129025.78   -1137.1361    73.848122    77.853443    77.773037    3.1515749    1344.9045    21579.604 
  403000    300.07908   -129756.49            0   -129038.09   -1035.2023    73.848122    77.853443    77.773037     3.109094    1348.8903    21578.423 
  404000    299.49018   -129745.21            0   -129028.22   -960.35007    73.848122    77.853443    77.773037    3.2651338    1352.8246    21576.406 
  405000    301.74325   -129758.33            0   -129035.95   -787.42572    73.848122    77.853443    77.773037    2.6267669    1356.4794    21569.934 
  406000    299.81428   -129749.95            0   -129032.19   -925.03811    73.848122    77.853443    77.773037    3.1446573    1360.1923    21564.398 
  407000    302.24448   -129748.29            0   -129024.71   -861.30152    73.848122    77.853443    77.773037     3.127077    1363.7504    21556.425 
  408000    299.26071   -129745.75            0   -129029.31   -1035.4069    73.848122    77.853443    77.773037    2.8798926    1367.7498    21555.431 
  409000    299.65479   -129753.31            0   -129035.93    -1057.687    73.848122    77.853443    77.773037    3.4733493    1371.8079    21555.344 
  410000    298.90781   -129741.54            0   -129025.94   -1216.5343    73.848122    77.853443    77.773037    3.0288676    1375.5861    21550.849 
  411000    298.43852   -129752.99            0   -129038.52   -971.44201    73.848122    77.853443    77.773037    2.6932737    1379.3893    21546.749 
  412000    303.11014    -129753.9            0   -129028.24   -897.67417    73.848122    77.853443    77.773037    3.0859404    1383.3297    21544.787 
  413000     299.5541   -129753.09            0   -129035.95   -965.38941    73.848122    77.853443    77.773037    2.9821903    1387.2342    21542.256 
  414000    298.49249   -129738.86            0   -129024.26   -999.86297    73.848122    77.853443    77.773037    3.4034437    1391.3232    21542.576 
  415000    297.48934   -129750.64            0   -129038.44    -1048.024    73.848122    77.853443    77.773037    3.2903365    1394.9167    21535.222 
  416000    299.91974   -129750.72            0    -129032.7   -927.69051    73.848122    77.853443    77.773037    3.1687623    1398.5214    21528.059 
  417000    301.41672   -129748.37            0   -129026.77   -1112.2602    73.848122    77.853443    77.773037    2.7496018     1402.081    21520.224 
  418000    298.07735   -129752.88            0   -129039.28   -1166.3166    73.848122    77.853443    77.773037    3.1842069    1405.8715    21515.946 
  419000    298.83151   -129752.03            0   -129036.62   -1107.4274    73.848122    77.853443    77.773037    3.1948235    1410.0397    21517.434 
  420000    302.24474   -129757.14            0   -129033.56   -1072.9336    73.848122    77.853443    77.773037    2.8094408    1413.8548     21513.52 
  421000    303.19914   -129752.03            0   -129026.16    -1153.888    73.848122    77.853443    77.773037    2.8914151    1417.5884     21508.37 
  422000    304.33971   -129748.51            0   -129019.92   -1085.3406    73.848122    77.853443    77.773037    3.0149123    1421.5287    21506.354 
  423000    301.75549   -129749.93            0   -129027.52   -1068.6405    73.848122    77.853443    77.773037    2.5184325    1425.2201    21500.572 
  424000    296.77588   -129754.41            0   -129043.92   -857.90258    73.848122    77.853443    77.773037    2.7915028    1429.3338    21501.155 
  425000    300.23402   -129759.03            0   -129040.26   -1092.0034    73.848122    77.853443    77.773037    2.7906165    1433.1717    21497.576 
  426000    301.29747   -129740.26            0   -129018.94   -944.08606    73.848122    77.853443    77.773037    2.7643755    1436.7558    21490.199 
  427000    299.65802   -129751.25            0   -129033.86   -1038.6038    73.848122    77.853443    77.773037    2.6033514    1440.4321    21484.216 
  428000    300.43542   -129757.86            0   -129038.61   -771.52459    73.848122    77.853443    77.773037    2.8426745    1444.0682    21477.649 
  429000     299.4934   -129746.55            0   -129029.55   -1161.8885    73.848122    77.853443    77.773037    2.8067586    1448.1617    21477.881 
  430000    302.70039   -129751.06            0   -129026.39   -965.29277    73.848122    77.853443    77.773037    2.9308875    1452.2603    21478.165 
  431000    302.20727   -129758.34            0   -129034.85   -942.93024    73.848122    77.853443    77.773037    2.8314103    1455.8604    21471.075 
  432000    298.32521   -129751.84            0   -129037.64   -740.45427    73.848122    77.853443    77.773037    2.6692774    1459.8457    21469.668 
  433000    298.03037   -129756.97            0   -129043.47   -1147.2513    73.848122    77.853443    77.773037    3.0004136    1463.8047    21467.861 
  434000    302.15336    -129759.2            0   -129035.84   -967.29246    73.848122    77.853443    77.773037    2.6649609     1467.774    21466.194 
  435000    302.15395   -129751.52            0   -129028.15   -1149.4859    73.848122    77.853443    77.773037    3.4171724    1471.8267    21465.733 
  436000    298.22027      -129754            0   -129040.05   -1166.7353    73.848122    77.853443    77.773037    2.9958091    1475.4632    21459.198 
  437000     299.7889   -129748.16            0   -129030.45   -1167.0726    73.848122    77.853443    77.773037    3.3216678    1479.1291    21453.105 
  438000    300.67167   -129750.97            0   -129031.15   -839.04454    73.848122    77.853443    77.773037    2.9510066    1482.7309    21446.098 
  439000    300.02125   -129759.89            0   -129041.63   -1187.7237    73.848122    77.853443    77.773037    2.9972265    1486.6062    21443.053 
  440000    300.81958   -129750.55            0   -129030.38   -1035.0402    73.848122    77.853443    77.773037    2.7282313    1490.7964    21444.532 
  441000     303.8203   -129751.24            0   -129023.88   -890.71259    73.848122    77.853443    77.773037    3.1581891    1494.5054    21439.081 
  442000     297.1007   -129757.06            0   -129045.79    -927.8085    73.848122    77.853443    77.773037    2.7960401    1498.1061    21432.089 
  443000    300.62988   -129748.86            0   -129029.14   -927.72464    73.848122    77.853443    77.773037    3.0307413     1502.059     21430.14 
  444000    297.38795   -129750.34            0   -129038.38   -1155.2597    73.848122    77.853443    77.773037      3.00318    1505.7363    21424.258 
  445000    302.34481   -129752.07            0   -129028.25   -931.03354    73.848122    77.853443    77.773037    2.7171196    1509.7344     21422.94 
  446000    301.10894   -129742.41            0   -129021.55   -901.39511    73.848122    77.853443    77.773037    2.8764356    1513.5351    21418.814 
  447000    299.42103   -129747.92            0    -129031.1   -1161.1664    73.848122    77.853443    77.773037    3.1292133    1517.1381    21411.901 
  448000    299.92304   -129756.01            0   -129037.98   -893.63167    73.848122    77.853443    77.773037    2.8518302    1520.7627    21405.309 
  449000    302.00644   -129748.48            0   -129025.47   -1039.8603    73.848122    77.853443    77.773037    2.6253032    1524.4254    21399.265 
  450000    299.31761   -129744.76            0   -129028.18   -620.02121    73.848122    77.853443    77.773037    3.0409324    1528.4452    21398.233 
  451000    301.76304   -129749.65            0   -129027.23   -941.68088    73.848122    77.853443    77.773037    3.0157167      1532.43    21396.697 
  452000    299.56425   -129752.88            0   -129035.72   -1067.8271    73.848122    77.853443    77.773037    2.7751983    1536.0494    21390.061 
  453000    299.96543   -129745.53            0    -129027.4   -995.06283    73.848122    77.853443    77.773037    3.1201672    1539.9881    21387.875 
  454000    297.33547   -129746.85            0   -129035.02   -936.45193    73.848122    77.853443    77.773037    2.7837418    1543.7726    21383.543 
  455000    301.22497   -129749.41            0   -129028.26   -923.11825    73.848122    77.853443    77.773037    3.6018788    1547.7228    21381.504 
  456000    297.84785   -129751.51            0   -129038.45   -877.78731    73.848122    77.853443    77.773037    2.6557522    1551.7905    21381.074 
  457000    302.46942   -129754.53            0   -129030.41    -1008.386    73.848122    77.853443    77.773037    3.0022751    1555.4287    21374.724 
  458000    299.73177   -129757.13            0   -129039.56   -995.72688    73.848122    77.853443    77.773037    3.1133454    1559.0514    21368.175 
  459000    299.46338   -129746.64            0   -129029.71   -977.41788    73.848122    77.853443    77.773037    3.4442317    1562.6694    21361.576 
  460000    300.79741    -129754.8            0   -129034.68   -1231.0736    73.848122    77.853443    77.773037    2.9577742    1566.4396    21357.067 
  461000    297.55842   -129749.63            0   -129037.27   -1144.4722    73.848122    77.853443    77.773037    2.9910081     1570.604    21357.921 
  462000    301.22518   -129743.01            0   -129021.87   -1258.3455    73.848122    77.853443    77.773037    2.6585023    1574.3357    21352.883 
  463000    297.77721   -129751.08            0   -129038.19    -806.6154    73.848122    77.853443    77.773037    2.5758719    1578.0113    21347.093 
  464000    297.93796   -129752.69            0   -129039.42    -1138.137    73.848122    77.853443    77.773037    3.1173119     1581.926    21344.538 
  465000     297.9656   -129756.36            0   -129043.02   -988.00031    73.848122    77.853443    77.773037    2.8175674    1585.7134    21340.264 
  466000    301.33933   -129746.04            0   -129024.62   -1031.3823    73.848122    77.853443    77.773037    2.7688682    1589.6229     21337.63 
  467000    299.46391   -129754.73            0    -129037.8   -981.81675    73.848122    77.853443    77.773037    3.2723452    1593.5953    21335.834 
  468000    301.90584   -129754.68            0   -129031.91   -1100.3685    73.848122    77.853443    77.773037    2.8576501    1597.1944    21329.041 
  469000    297.59516   -129753.55            0    -129041.1   -622.23847    73.848122    77.853443    77.773037    2.9512203    1600.8587    21323.133 
  470000    303.04116   -129758.26            0   -129032.78   -884.68539    73.848122    77.853443    77.773037    2.8694626    1604.5004    21316.934 
  471000    299.92631   -129760.47            0   -129042.44   -1279.1355    73.848122    77.853443    77.773037    3.3722666    1608.5049    21315.555 
  472000     300.3512    -129749.9            0   -129030.85   -921.55419    73.848122    77.853443    77.773037      3.06192    1612.4944    21313.966 
  473000     301.1386   -129754.47            0   -129033.53   -976.62788    73.848122    77.853443    77.773037    3.0109833    1616.0793    21307.031 
  474000    300.03372   -129750.82            0   -129032.53   -1026.0342    73.848122    77.853443    77.773037    3.0207137    1619.9597    21303.998 
  475000    299.11167   -129738.67            0   -129022.58   -1146.2992    73.848122    77.853443    77.773037    2.9470992    1623.7268    21299.475 
  476000     298.3201   -129748.78            0   -129034.59    -1401.647    73.848122    77.853443    77.773037    2.9876407    1627.5544    21295.747 
  477000    299.33118   -129761.28            0   -129044.67   -975.30566    73.848122    77.853443    77.773037    3.1600216    1631.6672    21295.741 
  478000    299.36652   -129746.49            0    -129029.8   -913.02042    73.848122    77.853443    77.773037    2.7889569    1635.2507    21288.824 
  479000    298.06306   -129755.03            0   -129041.46   -944.33111    73.848122    77.853443    77.773037    2.8360236    1638.8763    21282.471 
  480000     302.1459   -129755.39            0   -129032.05   -990.02383    73.848122    77.853443    77.773037    3.5379476    1642.4401    21275.329 
  481000    302.05437   -129760.49            0   -129037.36   -1207.3776    73.848122    77.853443    77.773037    2.8524858    1646.1237    21269.752 
  482000    300.39911   -129757.94            0   -129038.78   -1218.3889    73.848122    77.853443    77.773037    3.0659607    1650.2781    21270.251 
  483000    299.93632   -129754.49            0   -129036.43   -925.08945    73.848122    77.853443    77.773037    3.0635374    1654.2212    21268.012 
  484000    302.34322   -129749.67            0   -129025.85   -976.89624    73.848122    77.853443    77.773037    3.1618127     1657.916    21262.581 
  485000    298.22806   -129747.62            0   -129033.65   -799.54468    73.848122    77.853443    77.773037    2.8738678    1661.8034    21259.623 
  486000    302.98749   -129746.86            0    -129021.5   -684.96916    73.848122    77.853443    77.773037    3.4210409    1665.5955    21255.443 
  487000    300.38767   -129758.95            0   -129039.81   -1254.7822    73.848122    77.853443    77.773037    3.1738071    1669.5405    21253.212 
  488000    298.52424   -129748.18            0    -129033.5   -966.24199    73.848122    77.853443    77.773037    3.3597956    1673.4317    21250.291 
  489000    301.49474   -129753.14            0   -129031.36   -1067.6396    73.848122    77.853443    77.773037    3.0029152    1677.1085    21244.647 
  490000    300.93625   -129754.45            0      -129034   -942.49533    73.848122    77.853443    77.773037    3.3405925    1680.6371    21237.141 
[...]
15930000    298.91418   -129829.53            0   -129113.92   -1394.1558    73.848122    77.853443    77.773037    2.6051622        37349    453.63157 
15931000     301.2019   -129847.76            0   -129126.68   -1406.7091    73.848122    77.853443    77.773037    3.1908266    37352.962     449.8535 
15932000    300.33341   -129838.63            0   -129119.62    -1673.686    73.848122    77.853443    77.773037    3.1486486    37358.254    446.09128 
15933000     298.7279   -129835.33            0   -129120.17   -1273.8584    73.848122    77.853443    77.773037    2.7667483    37363.308    442.32592 
15934000    298.17297   -129833.31            0   -129119.48   -1540.4846    73.848122    77.853443    77.773037    2.9189574     37367.26    438.54736 
15935000    297.08555   -129842.64            0    -129131.4   -1840.0625    73.848122    77.853443    77.773037     3.114996    37372.138    434.77955 
15936000    300.32172   -129829.83            0   -129110.85   -1459.8773    73.848122    77.853443    77.773037    2.9622303    37376.343    431.00375 
15937000    300.22263   -129842.56            0   -129123.82   -1535.1102    73.848122    77.853443    77.773037    3.0938432    37380.803    427.23079 
15938000     302.4849   -129842.35            0    -129118.2   -1567.7617    73.848122    77.853443    77.773037    3.0993798    37384.713    423.45144 
15939000    297.18812   -129845.71            0   -129134.24   -1530.8337    73.848122    77.853443    77.773037    3.0502166    37388.504    419.67074 
15940000    301.43367   -129831.78            0   -129110.14   -1743.1036    73.848122    77.853443    77.773037     3.005565    37393.449    415.90287 
15941000    296.25135   -129840.05            0   -129130.81   -1558.0873    73.848122    77.853443    77.773037     2.800397     37397.63    412.12635 
15942000    299.06508    -129834.1            0   -129118.13   -1594.4655    73.848122    77.853443    77.773037    3.3224999    37401.631    408.34777 
15943000    301.00733   -129846.13            0   -129125.51   -1568.6776    73.848122    77.853443    77.773037    3.1782384    37407.115    404.58519 
15944000    301.48806   -129837.37            0    -129115.6   -1358.7411    73.848122    77.853443    77.773037    3.0394171    37412.242    400.81845 
15945000    299.00973   -129826.58            0   -129110.74   -1713.7153    73.848122    77.853443    77.773037    2.7344193    37416.064    397.03756 
15946000    299.60884   -129834.74            0   -129117.47   -1680.3808    73.848122    77.853443    77.773037    3.4740055    37421.767    393.27645 
15947000    297.39428   -129843.38            0   -129131.41   -1723.7702    73.848122    77.853443    77.773037    2.9729568    37426.088    389.50056 
15948000    298.49167   -129828.81            0   -129114.21   -1575.7443    73.848122    77.853443    77.773037    3.2873791    37429.949    385.71983 
15949000     297.8408      -129847            0   -129133.97   -1572.0167    73.848122    77.853443    77.773037    2.5980002    37434.848    381.94965 
15950000    300.76764   -129833.22            0   -129113.17   -1530.7656    73.848122    77.853443    77.773037    2.9811491    37439.162    378.17335 
15951000    301.88786   -129834.51            0   -129111.78   -1581.4763    73.848122    77.853443    77.773037    2.6608446    37443.313    374.39531 
15952000    299.54454   -129849.24            0   -129132.12   -1614.1077    73.848122    77.853443    77.773037    3.1152418     37448.15    370.62398 
15953000    298.32267   -129834.55            0   -129120.36   -1441.1946    73.848122    77.853443    77.773037    2.7066827    37451.833    366.84114 
15954000    300.97639   -129843.08            0   -129122.54   -1706.4601    73.848122    77.853443    77.773037    2.8257748    37455.635    363.05946 
15955000    301.37974   -129840.45            0   -129118.93   -1524.6338    73.848122    77.853443    77.773037    2.8283746    37459.927    359.28249 
15956000    301.03816   -129836.19            0   -129115.49   -1383.3047    73.848122    77.853443    77.773037    3.1356901    37463.941    355.50277 
15957000    299.89922   -129840.28            0   -129122.32   -1657.7438    73.848122    77.853443    77.773037    2.9029095    37468.382    351.72701 
15958000    298.34176   -129837.02            0   -129122.78   -1786.7348    73.848122    77.853443    77.773037    2.9897205    37473.782    347.96002 
15959000    301.66794   -129837.04            0   -129114.84   -1627.7383    73.848122    77.853443    77.773037    2.7720269    37477.593    344.17811 
15960000     299.4866   -129841.42            0   -129124.44    -1658.641    73.848122    77.853443    77.773037    3.4828151    37481.896    340.40067 
15961000    302.42398   -129836.26            0   -129112.25    -1482.315    73.848122    77.853443    77.773037    2.7116874    37486.259    336.62366 
15962000    301.57332   -129834.31            0   -129112.34   -1464.4539    73.848122    77.853443    77.773037    2.9075782    37491.414    332.85356 
15963000    302.14488   -129838.38            0   -129115.04    -1449.672    73.848122    77.853443    77.773037    3.4274783    37495.993    329.07812 
15964000    298.60126   -129843.73            0   -129128.87   -1556.5304    73.848122    77.853443    77.773037    2.8094502    37500.794    325.30445 
15965000    299.50075   -129840.05            0   -129123.04   -1481.4072    73.848122    77.853443    77.773037    2.9424933    37505.972     321.5338 
15966000    298.71285   -129837.67            0   -129122.54   -1743.5743    73.848122    77.853443    77.773037    2.7309384    37510.533    317.75764 
15967000    300.63767   -129842.17            0   -129122.43   -1721.7905    73.848122    77.853443    77.773037     2.898007    37514.592    313.97712 
15968000     299.4391   -129837.31            0   -129120.45   -1431.3364    73.848122    77.853443    77.773037    2.5906677    37518.502    310.19531 
15969000    299.29557   -129842.19            0   -129125.67   -1723.8393    73.848122    77.853443    77.773037    3.1678105    37522.924    306.41767 
15970000    299.60277   -129832.94            0   -129115.69   -1626.4267    73.848122    77.853443    77.773037    2.7565025    37526.933    302.63655 
15971000    299.96941   -129835.32            0   -129117.18   -1395.4012    73.848122    77.853443    77.773037    3.0705235    37530.713    298.85358 
15972000    300.16488    -129836.2            0    -129117.6   -1760.7969    73.848122    77.853443    77.773037    2.8784186    37534.441    295.07019 
15973000    297.65406   -129836.64            0   -129124.05   -1837.3206    73.848122    77.853443    77.773037    2.8374352    37538.457    291.28904 
15974000     300.7086   -129837.66            0   -129117.75   -1414.8705    73.848122    77.853443    77.773037     2.865266     37543.52    287.51587 
15975000    299.43403   -129838.45            0   -129121.59   -1663.9531    73.848122    77.853443    77.773037    2.9199767    37547.139    283.73153 
15976000    298.57064   -129843.18            0   -129128.39   -1945.9758    73.848122    77.853443    77.773037    2.7371602    37550.967    279.94877 
15977000    299.21319   -129832.93            0    -129116.6   -1833.1977    73.848122    77.853443    77.773037    3.1178125    37555.978    276.17472 
15978000    299.09781   -129838.23            0   -129122.18   -1632.1465    73.848122    77.853443    77.773037    3.1195584    37560.436    272.39639 
15979000    301.75275   -129829.69            0   -129107.29   -1635.7714    73.848122    77.853443    77.773037    2.8897598     37564.57    268.61561 
15980000    296.43137   -129837.09            0   -129127.42   -1826.2533    73.848122    77.853443    77.773037    3.1954833    37569.699    264.84179 
15981000    300.82175   -129840.01            0   -129119.84   -1865.4923    73.848122    77.853443    77.773037    2.8660045    37573.707    261.05989 
15982000    300.40817   -129837.57            0   -129118.38    -1748.143    73.848122    77.853443    77.773037     2.990997    37577.753    257.27821 
15983000    300.45067   -129841.63            0   -129122.34    -1630.626    73.848122    77.853443    77.773037    3.2392521    37582.311    253.49993 
15984000    301.63079    -129840.4            0   -129118.29   -1699.6359    73.848122    77.853443    77.773037    3.2724469    37586.245    249.71735 
15985000    296.81166   -129838.32            0   -129127.75   -1585.4137    73.848122    77.853443    77.773037    2.9296409    37590.002    245.93358 
15986000    301.76984   -129837.11            0   -129114.67   -1582.0508    73.848122    77.853443    77.773037     2.838885    37595.272    242.15956 
15987000    297.88451   -129836.42            0   -129123.27   -1490.1207    73.848122    77.853443    77.773037    2.8367288     37599.03    238.37566 
15988000    302.38701   -129838.53            0    -129114.6   -1532.6528    73.848122    77.853443    77.773037    2.9271677    37603.739    234.59768 
15989000    297.23459    -129834.7            0   -129123.11   -1717.3342    73.848122    77.853443    77.773037    2.7975657    37608.034    230.81699 
15990000    303.47008   -129847.25            0   -129120.74   -1700.8478    73.848122    77.853443    77.773037     2.775884    37611.687    227.03232 
15991000    300.77452   -129832.83            0   -129112.77   -1552.9045    73.848122    77.853443    77.773037     3.481553    37615.451    223.24833 
15992000    301.64896      -129841            0   -129118.84   -1670.8143    73.848122    77.853443    77.773037    3.0568313    37620.908    219.47421 
15993000    298.88406   -129837.57            0   -129122.04   -1711.4101    73.848122    77.853443    77.773037    2.9805171    37624.666    215.69003 
15994000    299.07184   -129841.41            0   -129125.43   -1394.0518    73.848122    77.853443    77.773037     3.042864     37629.22    211.91033 
15995000    301.04528   -129837.42            0   -129116.71   -1643.8422    73.848122    77.853443    77.773037    2.8172912    37633.306    208.12788 
15996000    301.92714   -129835.32            0   -129112.49   -1777.4805    73.848122    77.853443    77.773037    2.6399151    37638.364    204.35066 
15997000    299.13702   -129840.32            0   -129124.18   -1587.4068    73.848122    77.853443    77.773037    2.7021873    37643.453    200.57334 
15998000     298.1948    -129835.7            0   -129121.82   -1528.9537    73.848122    77.853443    77.773037    2.9906723    37648.564    196.79587 
15999000    301.73291   -129833.97            0   -129111.61   -1816.6531    73.848122    77.853443    77.773037    2.7217088    37652.457    193.01189 
16000000    298.18638   -129838.96            0    -129125.1    -1719.176    73.848122    77.853443    77.773037    3.1325389    37657.453    189.23343 
16001000    299.20291   -129840.62            0   -129124.32   -1688.9057    73.848122    77.853443    77.773037    3.1731086    37661.678    185.45093 
16002000    299.33094   -129840.54            0   -129123.93    -1671.541    73.848122    77.853443    77.773037    2.8172311    37665.449    181.66615 
16003000    300.57139   -129840.07            0   -129120.49   -1735.2605    73.848122    77.853443    77.773037    2.9075233    37669.214    177.88135 
16004000    299.63337   -129844.72            0   -129127.39   -1540.7195    73.848122    77.853443    77.773037    2.9812852    37674.647    174.10425 
16005000    300.38332   -129837.89            0   -129118.77   -1602.0914    73.848122    77.853443    77.773037    2.7442891    37678.387    170.31918 
16006000    300.01292   -129837.81            0   -129119.57   -1581.0327    73.848122    77.853443    77.773037    2.5730436    37682.876    166.53742 
16007000    299.50326   -129833.78            0   -129116.76    -1416.491    73.848122    77.853443    77.773037    2.6558738    37687.742    162.75715 
16008000    300.02109   -129834.22            0   -129115.96   -1848.3241    73.848122    77.853443    77.773037    3.1320875    37692.841    158.97764 
16009000    302.76562   -129840.31            0   -129115.48   -1782.5164    73.848122    77.853443    77.773037    3.1687306    37697.775    155.19719 
16010000    300.35522    -129841.3            0   -129122.24   -1589.8074    73.848122    77.853443    77.773037    3.2125817    37701.852    151.41306 
16011000    300.72921   -129840.22            0   -129120.27   -1539.5559    73.848122    77.853443    77.773037    2.6819427    37706.007    147.62918 
16012000    303.77119   -129828.59            0   -129101.35   -1648.0667    73.848122    77.853443    77.773037    3.0212733    37709.754    143.84367 
16013000    298.83398   -129837.29            0   -129121.87   -1757.0561    73.848122    77.853443    77.773037    3.0425053    37714.106    140.06041 
16014000    300.73972   -129844.85            0   -129124.87   -1519.5102    73.848122    77.853443    77.773037    3.0317772     37718.03     136.2755 
16015000    299.07507    -129831.9            0    -129115.9   -1469.3901    73.848122    77.853443    77.773037    3.3781136    37722.036    132.49084 
16016000    297.54009   -129831.74            0   -129119.42   -1738.7168    73.848122    77.853443    77.773037    2.9933255    37726.026    128.70609 
16017000    299.37173   -129837.06            0   -129120.36   -1701.0684    73.848122    77.853443    77.773037    2.6034718    37729.756    124.92043 
16018000    299.38351   -129833.35            0   -129116.62   -1777.6981    73.848122    77.853443    77.773037    2.7470465    37734.756    121.13886 
16019000    301.40307   -129838.29            0   -129116.72   -1498.4378    73.848122    77.853443    77.773037     2.910135    37738.951    117.35455 
16020000    302.31446   -129840.09            0   -129116.34   -1502.0304    73.848122    77.853443    77.773037    3.5112813    37743.016    113.56976 
16021000    301.98494   -129836.51            0   -129113.55   -1599.3475    73.848122    77.853443    77.773037    3.1228734    37747.957    109.78746 
16022000    299.36116    -129834.9            0   -129118.22   -1674.9424    73.848122    77.853443    77.773037    3.0140499    37751.868    106.00204 
16023000    301.64006   -129842.05            0   -129119.91   -1716.4166    73.848122    77.853443    77.773037    2.9308086    37756.454    102.21842 
16024000    301.75129   -129839.78            0   -129117.38   -1734.7247    73.848122    77.853443    77.773037     3.212493    37761.114    98.434828 
16025000     300.8191    -129840.1            0   -129119.93   -1882.9562    73.848122    77.853443    77.773037    3.3973402    37765.471    94.650302 
16026000    301.98617   -129840.35            0   -129117.39   -1773.2015    73.848122    77.853443    77.773037    2.7039404     37769.09    90.863889 
16027000    298.35892   -129836.93            0   -129122.65   -1661.1232    73.848122    77.853443    77.773037    3.3387716    37772.722    87.077539 
16028000    299.72486   -129827.94            0   -129110.39   -1319.6448    73.848122    77.853443    77.773037     3.000487    37776.786    83.292172 
16029000     295.6687   -129839.56            0   -129131.72   -1745.0933    73.848122    77.853443    77.773037    2.6467635    37781.007     79.50708 
16030000    300.15184   -129834.44            0   -129115.87   -1578.9424    73.848122    77.853443    77.773037    2.9487242    37785.378      75.7222 
16031000    301.80073   -129836.71            0   -129114.19   -1574.3579    73.848122    77.853443    77.773037    3.0279876    37789.611    71.936941 
16032000    301.14449   -129845.13            0   -129124.18   -1560.8949    73.848122    77.853443    77.773037    3.3249072    37793.604    68.151159 
16033000    299.33824   -129836.18            0   -129119.56   -1475.6459    73.848122    77.853443    77.773037    2.6608306    37798.622    64.367082 
16034000    299.62103   -129830.93            0   -129113.63   -1674.6815    73.848122    77.853443    77.773037    2.6700135    37803.508    60.582545 
16035000    299.33182   -129836.35            0   -129119.74   -1402.9593    73.848122    77.853443    77.773037    2.8804396    37807.485    56.796422 
16036000    297.96534   -129840.96            0   -129127.62   -1572.5558    73.848122    77.853443    77.773037     2.918424    37812.309    53.011448 
16037000     299.6644   -129833.49            0   -129116.09   -1393.4102    73.848122    77.853443    77.773037    2.6983081    37816.437    49.225361 
16038000    296.70389   -129841.93            0   -129131.62   -1402.0857    73.848122    77.853443    77.773037    3.3440849     37820.76     45.43944 
16039000      302.335   -129836.33            0   -129112.53   -1434.7538    73.848122    77.853443    77.773037    2.7762547    37824.648    41.652931 
16040000    302.27891    -129837.2            0   -129113.53   -1440.0442    73.848122    77.853443    77.773037    2.5713603    37829.754    37.867622 
16041000    301.32719   -129832.49            0    -129111.1   -1639.0788    73.848122    77.853443    77.773037    2.7794765    37833.748    34.081046 
16042000    299.36894   -129835.94            0   -129119.24   -1689.2391    73.848122    77.853443    77.773037    2.7665884    37837.715    30.294407 
16043000    298.22934   -129842.06            0   -129128.09   -1469.5864    73.848122    77.853443    77.773037    2.9370635    37842.697    26.508444 
16044000    299.08142   -129833.48            0   -129117.47   -1598.4037    73.848122    77.853443    77.773037    2.7668028    37848.112    22.722501 
16045000    298.43238   -129840.07            0   -129125.62   -1748.1693    73.848122    77.853443    77.773037    2.7398241    37851.955    18.935445 
16046000    299.92944   -129835.56            0   -129117.52    -1660.759    73.848122    77.853443    77.773037    2.7966006    37856.279    15.148571 
16047000    300.89605   -129836.09            0   -129115.73   -1567.8092    73.848122    77.853443    77.773037    3.1311299    37860.435    11.361539 
16048000     298.0081   -129841.95            0   -129128.51   -1740.0005    73.848122    77.853443    77.773037    2.9332426    37865.626    7.5746402 
16049000    299.02429   -129834.05            0   -129118.18   -1840.6123    73.848122    77.853443    77.773037    2.9028929    37870.079    3.7873866 
16050000    297.23153   -129844.57            0   -129132.99   -1637.3447    73.848122    77.853443    77.773037    2.9873418    37874.064            0 
Loop time of 37874.1 on 160 procs for 10000000 steps with 18522 atoms

Performance: 22.812 ns/day, 1.052 hours/ns, 264.033 timesteps/s
98.7% CPU use with 160 MPI tasks x 1 OpenMP threads

MPI task timing breakdown:
Section |  min time  |  avg time  |  max time  |%varavg| %total
---------------------------------------------------------------
Pair    | 6500.5     | 7466.6     | 8476.6     | 466.4 | 19.71
Kspace  | 21768      | 22869      | 23837      | 280.7 | 60.38
Neigh   | 117.9      | 128.62     | 140.46     |  46.0 |  0.34
Comm    | 5338.8     | 5626.6     | 6074.9     | 212.5 | 14.86
Output  | 136.15     | 136.16     | 136.17     |   0.0 |  0.36
Modify  | 1370.4     | 1494.3     | 1598.2     | 146.0 |  3.95
Other   |            | 153.2      |            |       |  0.40

Nlocal:    115.763 ave 129 max 99 min
Histogram: 2 0 5 17 33 34 28 26 11 4
Nghost:    3041.32 ave 3080 max 2982 min
Histogram: 1 3 6 15 21 30 30 25 19 10
Neighs:    27510.8 ave 31825 max 22920 min
Histogram: 2 7 14 29 21 34 24 13 11 5

Total # of neighbors = 4401723
Ave neighs/atom = 237.648
Neighbor list builds = 219301
Dangerous builds = 0

# Final Commands
variable        final_energy equal etotal
print           "final_energy: ${'final_energy'}"
ERROR on proc 0: Substitution for illegal variable 'final_energy' (../input.cpp:553)
Last command: final_energy: ${'final_energy'
