********************************************************************************
*                       GENERAL UTILITY LATTICE PROGRAM                        *
*                                 Julian Gale                                  *
*                       Curtin Institute for Computation                       *
*                    School of Molecular and Life Sciences                     *
*                    Curtin University, Western Australia                      *
********************************************************************************
* Version = 5.2.0 * Last modified =   1st June 2020                            *
********************************************************************************
*  optimise     - perform optimisation run                                     *
*  conp         - constant pressure calculation                                *
*  compare      - compare initial and final structures                         *
********************************************************************************

  Job Started  at 14:48.36  4th March      2022                               

  Number of CPUs =     1


  Total number of configurations input =      1

  Configuration number =   1

  **** Unit cell is not charge neutral    ****
  **** Sum of charges =   -0.0320000000   ****
  **** Check that a special position atom ****
  **** coordinate has not been varied     ****


  Current coordinates : 

--------------------------------------------------------------------------------
     No.  Atomic         x            y            z          Charge  Occupancy
          Number       (frac)       (frac)       (frac)         (e)  
--------------------------------------------------------------------------------
      1  Li    c      0.375000     0.375000     0.875000      1.000000  1.0000
      2  Li    c      0.250000     0.750000     0.500000      1.000000  1.0000
      3  Li    c      0.000000     0.750000     0.750000      1.000000  1.0000
      4  Li    c      0.750000     0.500000     0.250000      1.000000  1.0000
      5  Li    c      0.500000     0.000000     0.500000      1.000000  1.0000
      6  Li    c      0.125000     0.875000     0.125000      1.000000  1.0000
      7  Li    c      0.500000     0.500000     0.500000      1.000000  1.0000
      8  Li    c      0.500000     0.750000     0.750000      1.000000  1.0000
      9  Li    c      0.250000     0.750000     0.000000      1.000000  1.0000
     10  Li    c      0.250000     0.250000     0.500000      1.000000  1.0000
     11  Li    c      0.750000     0.250000     0.000000      1.000000  1.0000
     12  Li    c      0.500000     0.250000     0.250000      1.000000  1.0000
     13  Li    c      0.000000     0.750000     0.250000      1.000000  1.0000
     14  Li    c      0.750000     0.750000     0.500000      1.000000  1.0000
     15  Li    c      0.250000     0.000000     0.750000      1.000000  1.0000
     16  Li    c      0.000000     0.500000     0.000000      1.000000  1.0000
     17  Li    c      0.000000     0.000000     0.500000      1.000000  1.0000
     18  Sc    c      0.250000     0.500000     0.250000      3.000000  1.0000
     19  Sc    c      0.750000     0.500000     0.750000      3.000000  1.0000
     20  Sc    c      0.000000     0.250000     0.750000      3.000000  1.0000
     21  Sc    c      0.500000     0.000000     0.000000      3.000000  1.0000
     22  Sc    c      0.750000     0.000000     0.250000      3.000000  1.0000
     23  Cl    c      0.250000     0.250000     0.250000      1.485000  1.0000
     24  Cl    c      0.750000     0.500000     0.500000      1.485000  1.0000
     25  Cl    c      0.500000     0.000000     0.750000      1.485000  1.0000
     26  Cl    c      0.000000     0.750000     0.000000      1.485000  1.0000
     27  Cl    c      0.250000     0.000000     0.000000      1.485000  1.0000
     28  Cl    c      0.750000     0.750000     0.750000      1.485000  1.0000
     29  Cl    c      0.500000     0.250000     0.500000      1.485000  1.0000
     30  Cl    c      0.000000     0.500000     0.250000      1.485000  1.0000
     31  Cl    c      0.500000     0.750000     0.500000      1.485000  1.0000
     32  Cl    c      0.750000     0.500000     0.000000      1.485000  1.0000
     33  Cl    c      0.000000     0.000000     0.750000      1.485000  1.0000
     34  Cl    c      0.000000     0.250000     0.000000      1.485000  1.0000
     35  Cl    c      0.500000     0.500000     0.250000      1.485000  1.0000
     36  Cl    c      0.250000     0.000000     0.500000      1.485000  1.0000
     37  Cl    c      0.250000     0.750000     0.750000      1.485000  1.0000
     38  Cl    c      0.500000     0.000000     0.250000      1.485000  1.0000
     39  Cl    c      0.750000     0.250000     0.250000      1.485000  1.0000
     40  Cl    c      0.000000     0.500000     0.750000      1.485000  1.0000
     41  Cl    c      0.250000     0.500000     0.500000      1.485000  1.0000
     42  Cl    c      0.750000     0.000000     0.000000      1.485000  1.0000
     43  Cl    c      0.250000     0.500000     0.000000      1.485000  1.0000
     44  Cl    c      0.000000     0.000000     0.250000      1.485000  1.0000
     45  Cl    c      0.500000     0.500000     0.750000      1.485000  1.0000
     46  Cl    c      0.750000     0.000000     0.500000      1.485000  1.0000
     47  Cl    c      0.000000     0.250000     0.500000      1.485000  1.0000
     48  Cl    c      0.500000     0.750000     0.000000      1.485000  1.0000
     49  Cl    c      0.500000     0.250000     0.000000      1.485000  1.0000
     50  Cl    c      0.000000     0.750000     0.500000      1.485000  1.0000
     51  Cl    c      0.750000     0.250000     0.750000      1.485000  1.0000
     52  Cl    c      0.250000     0.750000     0.250000      1.485000  1.0000
     53  Cl    c      0.750000     0.750000     0.250000      1.485000  1.0000
     54  Cl    c      0.250000     0.250000     0.750000      1.485000  1.0000
     55  Cl    s      0.250000     0.250000     0.250000     -2.486000  1.0000
     56  Cl    s      0.750000     0.500000     0.500000     -2.486000  1.0000
     57  Cl    s      0.500000     0.000000     0.750000     -2.486000  1.0000
     58  Cl    s      0.000000     0.750000     0.000000     -2.486000  1.0000
     59  Cl    s      0.250000     0.000000     0.000000     -2.486000  1.0000
     60  Cl    s      0.750000     0.750000     0.750000     -2.486000  1.0000
     61  Cl    s      0.500000     0.250000     0.500000     -2.486000  1.0000
     62  Cl    s      0.000000     0.500000     0.250000     -2.486000  1.0000
     63  Cl    s      0.500000     0.750000     0.500000     -2.486000  1.0000
     64  Cl    s      0.750000     0.500000     0.000000     -2.486000  1.0000
     65  Cl    s      0.000000     0.000000     0.750000     -2.486000  1.0000
     66  Cl    s      0.000000     0.250000     0.000000     -2.486000  1.0000
     67  Cl    s      0.500000     0.500000     0.250000     -2.486000  1.0000
     68  Cl    s      0.250000     0.000000     0.500000     -2.486000  1.0000
     69  Cl    s      0.250000     0.750000     0.750000     -2.486000  1.0000
     70  Cl    s      0.500000     0.000000     0.250000     -2.486000  1.0000
     71  Cl    s      0.750000     0.250000     0.250000     -2.486000  1.0000
     72  Cl    s      0.000000     0.500000     0.750000     -2.486000  1.0000
     73  Cl    s      0.250000     0.500000     0.500000     -2.486000  1.0000
     74  Cl    s      0.750000     0.000000     0.000000     -2.486000  1.0000
     75  Cl    s      0.250000     0.500000     0.000000     -2.486000  1.0000
     76  Cl    s      0.000000     0.000000     0.250000     -2.486000  1.0000
     77  Cl    s      0.500000     0.500000     0.750000     -2.486000  1.0000
     78  Cl    s      0.750000     0.000000     0.500000     -2.486000  1.0000
     79  Cl    s      0.000000     0.250000     0.500000     -2.486000  1.0000
     80  Cl    s      0.500000     0.750000     0.000000     -2.486000  1.0000
     81  Cl    s      0.500000     0.250000     0.000000     -2.486000  1.0000
     82  Cl    s      0.000000     0.750000     0.500000     -2.486000  1.0000
     83  Cl    s      0.750000     0.250000     0.750000     -2.486000  1.0000
     84  Cl    s      0.250000     0.750000     0.250000     -2.486000  1.0000
     85  Cl    s      0.750000     0.750000     0.250000     -2.486000  1.0000
     86  Cl    s      0.250000     0.250000     0.750000     -2.486000  1.0000
--------------------------------------------------------------------------------



 Program terminated by processor     0 in                setup

