********************************************************************************
*                       GENERAL UTILITY LATTICE PROGRAM                        *
*                                 Julian Gale                                  *
*                       Curtin Institute for Computation                       *
*                    School of Molecular and Life Sciences                     *
*                    Curtin University, Western Australia                      *
********************************************************************************
* Version = 5.2.0 * Last modified =   1st June 2020                            *
********************************************************************************
*  optimise     - perform optimisation run                                     *
*  conp         - constant pressure calculation                                *
*  compare      - compare initial and final structures                         *
********************************************************************************

  Job Started  at 14:26.30  7th March      2022                               

  Number of CPUs =     1


  Total number of configurations input =      1

********************************************************************************
*  Input for Configuration =   1                                               *
********************************************************************************

  Formula = Li17Sc5Cl32                                                 

  Number of irreducible atoms/shells =      86


  Total number atoms/shells =      86

  Dimensionality = 3               :  Bulk   



  Cartesian lattice vectors (Angstroms) :

       10.403700    0.000000    0.000000
        0.000000   10.403700    0.000000
        0.000000    0.000000   10.403700

  Cell parameters (Angstroms/Degrees):

  a =      10.4037    alpha =  90.0000
  b =      10.4037    beta  =  90.0000
  c =      10.4037    gamma =  90.0000

  Initial cell volume =        1126.065003 Angs**3

  Temperature of configuration =   0.00     K 

  Pressure of configuration =         0.000 GPa 

  Fractional coordinates of asymmetric unit :

--------------------------------------------------------------------------------
   No.  Atomic       x           y          z         Charge      Occupancy
        Label      (Frac)      (Frac)     (Frac)        (e)         (Frac)  
--------------------------------------------------------------------------------
      1 Li    c    0.375000    0.375000    0.875000     1.00000    1.000000    
      2 Li    c    0.250000 *  0.750000 *  0.500000 *   1.00000    1.000000    
      3 Li    c    0.000000 *  0.750000 *  0.750000 *   1.00000    1.000000    
      4 Li    c    0.750000 *  0.500000 *  0.250000 *   1.00000    1.000000    
      5 Li    c    0.500000 *  0.000000 *  0.500000 *   1.00000    1.000000    
      6 Li    c    0.125000 *  0.875000 *  0.125000 *   1.00000    1.000000    
      7 Li    c    0.500000 *  0.500000 *  0.500000 *   1.00000    1.000000    
      8 Li    c    0.500000 *  0.750000 *  0.750000 *   1.00000    1.000000    
      9 Li    c    0.250000 *  0.750000 *  0.000000 *   1.00000    1.000000    
     10 Li    c    0.250000 *  0.250000 *  0.500000 *   1.00000    1.000000    
     11 Li    c    0.750000 *  0.250000 *  0.000000 *   1.00000    1.000000    
     12 Li    c    0.500000 *  0.250000 *  0.250000 *   1.00000    1.000000    
     13 Li    c    0.000000 *  0.750000 *  0.250000 *   1.00000    1.000000    
     14 Li    c    0.750000 *  0.750000 *  0.500000 *   1.00000    1.000000    
     15 Li    c    0.250000 *  0.000000 *  0.750000 *   1.00000    1.000000    
     16 Li    c    0.000000 *  0.500000 *  0.000000 *   1.00000    1.000000    
     17 Li    c    0.000000 *  0.000000 *  0.500000 *   1.00000    1.000000    
     18 Sc    c    0.250000 *  0.500000 *  0.250000 *   3.00000    1.000000    
     19 Sc    c    0.750000 *  0.500000 *  0.750000 *   3.00000    1.000000    
     20 Sc    c    0.000000 *  0.250000 *  0.750000 *   3.00000    1.000000    
     21 Sc    c    0.500000 *  0.000000 *  0.000000 *   3.00000    1.000000    
     22 Sc    c    0.750000 *  0.000000 *  0.250000 *   3.00000    1.000000    
     23 Cl    c    0.250000 *  0.250000 *  0.250000 *  -1.00000    1.000000    
     24 Cl    c    0.750000 *  0.500000 *  0.500000 *  -1.00000    1.000000    
     25 Cl    c    0.500000 *  0.000000 *  0.750000 *  -1.00000    1.000000    
     26 Cl    c    0.000000 *  0.750000 *  0.000000 *  -1.00000    1.000000    
     27 Cl    c    0.250000 *  0.000000 *  0.000000 *  -1.00000    1.000000    
     28 Cl    c    0.750000 *  0.750000 *  0.750000 *  -1.00000    1.000000    
     29 Cl    c    0.500000 *  0.250000 *  0.500000 *  -1.00000    1.000000    
     30 Cl    c    0.000000 *  0.500000 *  0.250000 *  -1.00000    1.000000    
     31 Cl    c    0.500000 *  0.750000 *  0.500000 *  -1.00000    1.000000    
     32 Cl    c    0.750000 *  0.500000 *  0.000000 *  -1.00000    1.000000    
     33 Cl    c    0.000000 *  0.000000 *  0.750000 *  -1.00000    1.000000    
     34 Cl    c    0.000000 *  0.250000 *  0.000000 *  -1.00000    1.000000    
     35 Cl    c    0.500000 *  0.500000 *  0.250000 *  -1.00000    1.000000    
     36 Cl    c    0.250000 *  0.000000 *  0.500000 *  -1.00000    1.000000    
     37 Cl    c    0.250000 *  0.750000 *  0.750000 *  -1.00000    1.000000    
     38 Cl    c    0.500000 *  0.000000 *  0.250000 *  -1.00000    1.000000    
     39 Cl    c    0.750000 *  0.250000 *  0.250000 *  -1.00000    1.000000    
     40 Cl    c    0.000000 *  0.500000 *  0.750000 *  -1.00000    1.000000    
     41 Cl    c    0.250000 *  0.500000 *  0.500000 *  -1.00000    1.000000    
     42 Cl    c    0.750000 *  0.000000 *  0.000000 *  -1.00000    1.000000    
     43 Cl    c    0.250000 *  0.500000 *  0.000000 *  -1.00000    1.000000    
     44 Cl    c    0.000000 *  0.000000 *  0.250000 *  -1.00000    1.000000    
     45 Cl    c    0.500000 *  0.500000 *  0.750000 *  -1.00000    1.000000    
     46 Cl    c    0.750000 *  0.000000 *  0.500000 *  -1.00000    1.000000    
     47 Cl    c    0.000000 *  0.250000 *  0.500000 *  -1.00000    1.000000    
     48 Cl    c    0.500000 *  0.750000 *  0.000000 *  -1.00000    1.000000    
     49 Cl    c    0.500000 *  0.250000 *  0.000000 *  -1.00000    1.000000    
     50 Cl    c    0.000000 *  0.750000 *  0.500000 *  -1.00000    1.000000    
     51 Cl    c    0.750000 *  0.250000 *  0.750000 *  -1.00000    1.000000    
     52 Cl    c    0.250000 *  0.750000 *  0.250000 *  -1.00000    1.000000    
     53 Cl    c    0.750000 *  0.750000 *  0.250000 *  -1.00000    1.000000    
     54 Cl    c    0.250000 *  0.250000 *  0.750000 *  -1.00000    1.000000    
     55 Cl    s    0.250000 *  0.250000 *  0.250000 *   0.00000    1.000000    
     56 Cl    s    0.750000 *  0.500000 *  0.500000 *   0.00000    1.000000    
     57 Cl    s    0.500000 *  0.000000 *  0.750000 *   0.00000    1.000000    
     58 Cl    s    0.000000 *  0.750000 *  0.000000 *   0.00000    1.000000    
     59 Cl    s    0.250000 *  0.000000 *  0.000000 *   0.00000    1.000000    
     60 Cl    s    0.750000 *  0.750000 *  0.750000 *   0.00000    1.000000    
     61 Cl    s    0.500000 *  0.250000 *  0.500000 *   0.00000    1.000000    
     62 Cl    s    0.000000 *  0.500000 *  0.250000 *   0.00000    1.000000    
     63 Cl    s    0.500000 *  0.750000 *  0.500000 *   0.00000    1.000000    
     64 Cl    s    0.750000 *  0.500000 *  0.000000 *   0.00000    1.000000    
     65 Cl    s    0.000000 *  0.000000 *  0.750000 *   0.00000    1.000000    
     66 Cl    s    0.000000 *  0.250000 *  0.000000 *   0.00000    1.000000    
     67 Cl    s    0.500000 *  0.500000 *  0.250000 *   0.00000    1.000000    
     68 Cl    s    0.250000 *  0.000000 *  0.500000 *   0.00000    1.000000    
     69 Cl    s    0.250000 *  0.750000 *  0.750000 *   0.00000    1.000000    
     70 Cl    s    0.500000 *  0.000000 *  0.250000 *   0.00000    1.000000    
     71 Cl    s    0.750000 *  0.250000 *  0.250000 *   0.00000    1.000000    
     72 Cl    s    0.000000 *  0.500000 *  0.750000 *   0.00000    1.000000    
     73 Cl    s    0.250000 *  0.500000 *  0.500000 *   0.00000    1.000000    
     74 Cl    s    0.750000 *  0.000000 *  0.000000 *   0.00000    1.000000    
     75 Cl    s    0.250000 *  0.500000 *  0.000000 *   0.00000    1.000000    
     76 Cl    s    0.000000 *  0.000000 *  0.250000 *   0.00000    1.000000    
     77 Cl    s    0.500000 *  0.500000 *  0.750000 *   0.00000    1.000000    
     78 Cl    s    0.750000 *  0.000000 *  0.500000 *   0.00000    1.000000    
     79 Cl    s    0.000000 *  0.250000 *  0.500000 *   0.00000    1.000000    
     80 Cl    s    0.500000 *  0.750000 *  0.000000 *   0.00000    1.000000    
     81 Cl    s    0.500000 *  0.250000 *  0.000000 *   0.00000    1.000000    
     82 Cl    s    0.000000 *  0.750000 *  0.500000 *   0.00000    1.000000    
     83 Cl    s    0.750000 *  0.250000 *  0.750000 *   0.00000    1.000000    
     84 Cl    s    0.250000 *  0.750000 *  0.250000 *   0.00000    1.000000    
     85 Cl    s    0.750000 *  0.750000 *  0.250000 *   0.00000    1.000000    
     86 Cl    s    0.250000 *  0.250000 *  0.750000 *   0.00000    1.000000    
--------------------------------------------------------------------------------



********************************************************************************
*  General input information                                                   *
********************************************************************************

  Species output for all configurations : 

--------------------------------------------------------------------------------
  Species    Type    Atomic    Atomic    Charge       Radii (Angs)     Library
                     Number     Mass       (e)     Cova   Ionic  VDW   Symbol
--------------------------------------------------------------------------------
    Li       Core        3       6.94   1.000000   0.680  0.000  1.800          
    Sc       Core       21      44.96   3.000000   1.440  0.000  2.150          
    Cl       Core       17      35.45  -1.000000   0.990  0.000  1.650          
    Cl       Shell      17       0.00   0.000000   0.990  0.000  0.000          
--------------------------------------------------------------------------------


  Lattice summation method               =    Ewald          (3-D)
                                         =    Parry          (2-D)
                                         =    Saunders et al (1-D)
  Accuracy factor for lattice sums       =   12.000


  Analytic derivatives to be used

  Time limit = Infinity


!!!!!!!!!!!!!!!!!!!!!!!!!!!!!!!!!!!!!!!!!!!!!!!!!!!!!!!!!!!!!!!!!!!!!!!!!!!!!!!!
!! WARNING : potential   3 is acting on the core of an ion with a shell
!!!!!!!!!!!!!!!!!!!!!!!!!!!!!!!!!!!!!!!!!!!!!!!!!!!!!!!!!!!!!!!!!!!!!!!!!!!!!!!!



!!!!!!!!!!!!!!!!!!!!!!!!!!!!!!!!!!!!!!!!!!!!!!!!!!!!!!!!!!!!!!!!!!!!!!!!!!!!!!!!
!! WARNING : potential   4 is acting on the core of an ion with a shell
!!!!!!!!!!!!!!!!!!!!!!!!!!!!!!!!!!!!!!!!!!!!!!!!!!!!!!!!!!!!!!!!!!!!!!!!!!!!!!!!



!!!!!!!!!!!!!!!!!!!!!!!!!!!!!!!!!!!!!!!!!!!!!!!!!!!!!!!!!!!!!!!!!!!!!!!!!!!!!!!!
!! WARNING : potential   5 is acting on the core of an ion with a shell
!!!!!!!!!!!!!!!!!!!!!!!!!!!!!!!!!!!!!!!!!!!!!!!!!!!!!!!!!!!!!!!!!!!!!!!!!!!!!!!!


  Maximum range for interatomic potentials =    100000.000000 Angstroms

  General interatomic potentials :

--------------------------------------------------------------------------------
Atom  Types   Potential      Parameter       Value         Units   Cutoffs(Ang)
  1     2                                                            Min /  Max 
--------------------------------------------------------------------------------
Cl   c Cl   s Spring (c-s)  Spring k 2       36.070000    eV*Ang^-2 0.000  0.800
                            Spring k 4       0.0000000    eV*Ang^-4 
--------------------------------------------------------------------------------
Li   c Li   c Buckingham    Buckingham A     360.53000    eV        0.000 12.000
                            Buckingham rho  0.16100000    Ang       
                            Buckingham C     0.0000000    eV*Ang^6  
--------------------------------------------------------------------------------
Li   c Cl   c Buckingham    Buckingham A     421.04000    eV        0.000 12.000
                            Buckingham rho  0.33400000    Ang       
                            Buckingham C     0.0000000    eV*Ang^6  
--------------------------------------------------------------------------------
Cl   c Sc   c Buckingham    Buckingham A     2456.2200    eV        0.000 12.000
                            Buckingham rho  0.31470000    Ang       
                            Buckingham C     0.0000000    eV*Ang^6  
--------------------------------------------------------------------------------
Cl   c Cl   c Buckingham    Buckingham A     1227.2000    eV        0.000 12.000
                            Buckingham rho  0.32100000    Ang       
                            Buckingham C     14.530000    eV*Ang^6  
--------------------------------------------------------------------------------

********************************************************************************
*  Output for configuration   1                                                *
********************************************************************************


  Components of energy : 

--------------------------------------------------------------------------------
  Interatomic potentials     =          39.98465897 eV    
  Monopole - monopole (real) =        -203.26936708 eV    
  Monopole - monopole (recip)=        -187.00458965 eV    
  Monopole - monopole (total)=        -390.27395673 eV    
--------------------------------------------------------------------------------
  Total lattice energy       =        -350.28929776 eV    
--------------------------------------------------------------------------------
  Total lattice energy       =          -33797.5626 kJ/(mole unit cells)
--------------------------------------------------------------------------------


  Number of variables =      261

  Maximum number of calculations  =          1000
  Maximum Hessian update interval =            10
  Maximum step size               =   1.000000000
  Maximum parameter tolerance     =   0.000010000
  Maximum function  tolerance     =   0.000010000
  Maximum gradient  tolerance     =   0.001000000
  Maximum gradient  component     =   0.010000000

  Symmetry not applied to optimisation

  Cell parameters to be optimised using strains

  Newton-Raphson optimiser to be used

  BFGS hessian update to be used

  Lower half triangular hessian to be used

  Start of bulk optimisation :

  Cycle:      0 Energy:      -350.289298  Gnorm:      0.737584  CPU:    0.067
  ** Hessian calculated **
  Cycle:      1 Energy:      -365.709376  Gnorm:      0.255467  CPU:    0.116
  ** Hessian calculated **
  Cycle:      2 Energy:      -367.501148  Gnorm:      0.176937  CPU:    0.182
  Cycle:      3 Energy:      -368.243797  Gnorm:      0.156746  CPU:    0.216
  Cycle:      4 Energy:      -368.598502  Gnorm:      0.132624  CPU:    0.247
  Cycle:      5 Energy:      -368.869199  Gnorm:      0.125286  CPU:    0.277
  Cycle:      6 Energy:      -369.275748  Gnorm:      0.124451  CPU:    0.314
  Cycle:      7 Energy:      -369.643005  Gnorm:      0.102647  CPU:    0.351
  Cycle:      8 Energy:      -369.899382  Gnorm:      0.086812  CPU:    0.381
  Cycle:      9 Energy:      -370.067780  Gnorm:      0.075237  CPU:    0.411
  Cycle:     10 Energy:      -370.166265  Gnorm:      0.062986  CPU:    0.441
  Cycle:     11 Energy:      -370.268675  Gnorm:      0.064119  CPU:    0.478
  ** Hessian calculated **
  Cycle:     12 Energy:      -370.600179  Gnorm:      0.053164  CPU:    0.567
  ** Hessian calculated **
  Cycle:     13 Energy:      -370.639022  Gnorm:      0.042534  CPU:    0.636
  Cycle:     14 Energy:      -370.678651  Gnorm:      0.039679  CPU:    0.673
  Cycle:     15 Energy:      -370.735521  Gnorm:      0.053979  CPU:    0.710
  Cycle:     16 Energy:      -370.832372  Gnorm:      0.055675  CPU:    0.748
  Cycle:     17 Energy:      -370.931254  Gnorm:      0.050405  CPU:    0.784
  Cycle:     18 Energy:      -370.984444  Gnorm:      0.044299  CPU:    0.814
  Cycle:     19 Energy:      -371.032843  Gnorm:      0.047440  CPU:    0.852
  Cycle:     20 Energy:      -371.092793  Gnorm:      0.042962  CPU:    0.888
  Cycle:     21 Energy:      -371.133613  Gnorm:      0.040356  CPU:    0.918
  Cycle:     22 Energy:      -371.171753  Gnorm:      0.032780  CPU:    0.956
  ** Hessian calculated **
  Cycle:     23 Energy:      -371.192162  Gnorm:      0.027415  CPU:    1.022
  Cycle:     24 Energy:      -371.212867  Gnorm:      0.028921  CPU:    1.059
  Cycle:     25 Energy:      -371.232463  Gnorm:      0.030937  CPU:    1.095
  Cycle:     26 Energy:      -371.254913  Gnorm:      0.026271  CPU:    1.132
  Cycle:     27 Energy:      -371.278245  Gnorm:      0.033816  CPU:    1.169
  Cycle:     28 Energy:      -371.316715  Gnorm:      0.039660  CPU:    1.207
  Cycle:     29 Energy:      -371.354319  Gnorm:      0.035215  CPU:    1.244
  Cycle:     30 Energy:      -371.379797  Gnorm:      0.030035  CPU:    1.275
  Cycle:     31 Energy:      -371.400028  Gnorm:      0.028939  CPU:    1.311
  Cycle:     32 Energy:      -371.421218  Gnorm:      0.031746  CPU:    1.348
  ** Hessian calculated **
  Cycle:     33 Energy:      -371.434602  Gnorm:      0.024245  CPU:    1.413
  Cycle:     34 Energy:      -371.446902  Gnorm:      0.022806  CPU:    1.450
  Cycle:     35 Energy:      -371.461646  Gnorm:      0.024846  CPU:    1.486
  Cycle:     36 Energy:      -371.482868  Gnorm:      0.031403  CPU:    1.523
  Cycle:     37 Energy:      -371.504241  Gnorm:      0.028610  CPU:    1.560
  Cycle:     38 Energy:      -371.523742  Gnorm:      0.026691  CPU:    1.596
  Cycle:     39 Energy:      -371.547897  Gnorm:      0.030888  CPU:    1.633
  Cycle:     40 Energy:      -371.572071  Gnorm:      0.030516  CPU:    1.669
  Cycle:     41 Energy:      -371.598262  Gnorm:      0.033210  CPU:    1.706
  Cycle:     42 Energy:      -371.639178  Gnorm:      0.049465  CPU:    1.743
  ** Hessian calculated **
  Cycle:     43 Energy:      -371.716736  Gnorm:      0.043136  CPU:    1.839
  Cycle:     44 Energy:      -371.770583  Gnorm:      0.047394  CPU:    1.875
  ** Hessian calculated **
  Cycle:     45 Energy:      -371.818794  Gnorm:      0.028075  CPU:    1.941
  Cycle:     46 Energy:      -371.839091  Gnorm:      0.025432  CPU:    1.978
  Cycle:     47 Energy:      -371.854817  Gnorm:      0.028455  CPU:    2.015
  Cycle:     48 Energy:      -371.879777  Gnorm:      0.029370  CPU:    2.051
  Cycle:     49 Energy:      -371.898323  Gnorm:      0.031677  CPU:    2.081
  Cycle:     50 Energy:      -371.920953  Gnorm:      0.029484  CPU:    2.111
  Cycle:     51 Energy:      -371.943358  Gnorm:      0.028760  CPU:    2.148
  Cycle:     52 Energy:      -371.956598  Gnorm:      0.023092  CPU:    2.177
  Cycle:     53 Energy:      -371.967826  Gnorm:      0.021924  CPU:    2.214
  Cycle:     54 Energy:      -371.979093  Gnorm:      0.022566  CPU:    2.251
  ** Hessian calculated **
  Cycle:     55 Energy:      -372.014787  Gnorm:      0.020024  CPU:    2.343
  Cycle:     56 Energy:      -372.046756  Gnorm:      0.017299  CPU:    2.387
  Cycle:     57 Energy:      -372.055053  Gnorm:      0.018437  CPU:    2.418
  ** Hessian calculated **
  Cycle:     58 Energy:      -372.116706  Gnorm:      0.018692  CPU:    2.505
  Cycle:     59 Energy:      -372.127906  Gnorm:      0.026529  CPU:    2.542
  ** Hessian calculated **
  Cycle:     60 Energy:      -372.146355  Gnorm:      0.024086  CPU:    2.622
  Cycle:     61 Energy:      -372.153561  Gnorm:      0.019976  CPU:    2.652
  ** Hessian calculated **
  Cycle:     62 Energy:      -372.384287  Gnorm:      0.030913  CPU:    2.741
  Cycle:     63 Energy:      -372.433998  Gnorm:      0.031340  CPU:    2.778
  Cycle:     64 Energy:      -372.479496  Gnorm:      0.021127  CPU:    2.815
  Cycle:     65 Energy:      -372.514368  Gnorm:      0.012991  CPU:    2.852
  Cycle:     66 Energy:      -372.526366  Gnorm:      0.007411  CPU:    2.882
  Cycle:     67 Energy:      -372.533969  Gnorm:      0.006292  CPU:    2.918
  Cycle:     68 Energy:      -372.540746  Gnorm:      0.008102  CPU:    2.955
  Cycle:     69 Energy:      -372.590904  Gnorm:      0.026511  CPU:    3.014
  Cycle:     70 Energy:      -372.593391  Gnorm:      0.027371  CPU:    3.057
  Cycle:     71 Energy:      -372.635917  Gnorm:      0.023288  CPU:    3.094
  ** Hessian calculated **
  Cycle:     72 Energy:      -372.694167  Gnorm:      0.025691  CPU:    3.180
  Cycle:     73 Energy:      -372.718224  Gnorm:      0.023760  CPU:    3.210
  Cycle:     74 Energy:      -372.750403  Gnorm:      0.019578  CPU:    3.246
  Cycle:     75 Energy:      -372.789066  Gnorm:      0.010565  CPU:    3.283
  Cycle:     76 Energy:      -372.809587  Gnorm:      0.006589  CPU:    3.319
  Cycle:     77 Energy:      -372.814171  Gnorm:      0.002612  CPU:    3.349
  Cycle:     78 Energy:      -372.814854  Gnorm:      0.001001  CPU:    3.385
  Cycle:     79 Energy:      -372.814954  Gnorm:      0.000495  CPU:    3.415
  Cycle:     80 Energy:      -372.814973  Gnorm:      0.000165  CPU:    3.445


  **** Optimisation achieved ****


  Final energy =    -372.81497667 eV
  Final Gnorm  =       0.00008086

  Components of energy : 

--------------------------------------------------------------------------------
  Interatomic potentials     =          55.02283495 eV    
  Monopole - monopole (real) =        -247.35306479 eV    
  Monopole - monopole (recip)=        -180.48474682 eV    
  Monopole - monopole (total)=        -427.83781161 eV    
--------------------------------------------------------------------------------
  Total lattice energy       =        -372.81497667 eV    
--------------------------------------------------------------------------------
  Total lattice energy       =          -35970.9462 kJ/(mole unit cells)
--------------------------------------------------------------------------------

  Final fractional coordinates of atoms :

--------------------------------------------------------------------------------
   No.  Atomic        x           y          z          Radius
        Label       (Frac)      (Frac)     (Frac)       (Angs) 
--------------------------------------------------------------------------------
     1  Li    c     0.375000    0.375000    0.875000    0.000000
     2  Li    c     0.296561    0.804534    0.514433    0.000000
     3  Li    c     0.877063    0.922009    0.863281    0.000000
     4  Li    c     0.588994    0.670023    0.096440    0.000000
     5  Li    c     0.631415    0.209437    0.585615    0.000000
     6  Li    c     0.134716    0.943402    0.075789    0.000000
     7  Li    c     0.556725    0.561925    0.444269    0.000000
     8  Li    c     0.411891    0.691015    0.785456    0.000000
     9  Li    c     0.114615    0.653493    0.858571    0.000000
    10  Li    c     0.305485    0.254863    0.485849    0.000000
    11  Li    c     0.941504    0.310152    0.154859    0.000000
    12  Li    c     0.535809    0.300396    0.240708    0.000000
    13  Li    c     0.953488    0.671891    0.438933    0.000000
    14  Li    c     0.633606    0.894898    0.612935    0.000000
    15  Li    c     0.213184    0.991026    0.742645    0.000000
    16  Li    c     0.884133    0.653007    0.106954    0.000000
    17  Li    c     0.072150    0.053583    0.411665    0.000000
    18  Sc    c     0.238795    0.562584    0.217247    0.000000
    19  Sc    c     0.744277    0.554482    0.751971    0.000000
    20  Sc    c     0.012212    0.290464    0.734510    0.000000
    21  Sc    c     0.514341    0.030547    0.975083    0.000000
    22  Sc    c     0.771505    0.000698    0.255615    0.000000
    23  Cl    c     0.267805    0.351571    0.285515    0.000000
    24  Cl    c     0.760917    0.573669    0.530478    0.000000
    25  Cl    c     0.560187    0.061881    0.757756    0.000000
    26  Cl    c     0.997020    0.789137    0.977727    0.000000
    27  Cl    c     0.302420    0.025747    0.940060    0.000000
    28  Cl    c     0.763564    0.778483    0.744045    0.000000
    29  Cl    c     0.511789    0.336637    0.465734    0.000000
    30  Cl    c     0.021322    0.533758    0.209827    0.000000
    31  Cl    c     0.495317    0.736105    0.570989    0.000000
    32  Cl    c     0.746136    0.568342    0.971558    0.000000
    33  Cl    c     0.011736    0.070062    0.774670    0.000000
    34  Cl    c     0.992897    0.329277    0.949008    0.000000
    35  Cl    c     0.457296    0.570944    0.240148    0.000000
    36  Cl    c     0.247268    0.026706    0.523113    0.000000
    37  Cl    c     0.235373    0.775922    0.733345    0.000000
    38  Cl    c     0.549319    0.016415    0.196420    0.000000
    39  Cl    c     0.747850    0.229014    0.233015    0.000000
    40  Cl    c     0.968291    0.523389    0.735782    0.000000
    41  Cl    c     0.183674    0.638031    0.423168    0.000000
    42  Cl    c     0.734778    0.009761    0.013414    0.000000
    43  Cl    c     0.263924    0.536509    0.992634    0.000000
    44  Cl    c     0.979527    0.072256    0.194307    0.000000
    45  Cl    c     0.534816    0.509872    0.777525    0.000000
    46  Cl    c     0.692347    0.037384    0.463569    0.000000
    47  Cl    c     0.027855    0.241674    0.521213    0.000000
    48  Cl    c     0.511540    0.806466    0.944067    0.000000
    49  Cl    c     0.489236    0.249935    0.014542    0.000000
    50  Cl    c     0.920734    0.885322    0.388074    0.000000
    51  Cl    c     0.790936    0.328427    0.718637    0.000000
    52  Cl    c     0.233898    0.783089    0.174180    0.000000
    53  Cl    c     0.736787    0.780751    0.206014    0.000000
    54  Cl    c     0.227118    0.309783    0.725128    0.000000
    55  Cl    s     0.267805    0.351571    0.285515    0.000000
    56  Cl    s     0.760917    0.573669    0.530478    0.000000
    57  Cl    s     0.560187    0.061881    0.757756    0.000000
    58  Cl    s     0.997020    0.789137    0.977727    0.000000
    59  Cl    s     0.302420    0.025747    0.940060    0.000000
    60  Cl    s     0.763564    0.778483    0.744045    0.000000
    61  Cl    s     0.511789    0.336637    0.465734    0.000000
    62  Cl    s     0.021322    0.533758    0.209827    0.000000
    63  Cl    s     0.495317    0.736105    0.570989    0.000000
    64  Cl    s     0.746136    0.568342    0.971558    0.000000
    65  Cl    s     0.011736    0.070062    0.774670    0.000000
    66  Cl    s     0.992897    0.329277    0.949008    0.000000
    67  Cl    s     0.457296    0.570944    0.240148    0.000000
    68  Cl    s     0.247268    0.026706    0.523113    0.000000
    69  Cl    s     0.235373    0.775922    0.733345    0.000000
    70  Cl    s     0.549319    0.016415    0.196420    0.000000
    71  Cl    s     0.747850    0.229014    0.233015    0.000000
    72  Cl    s     0.968291    0.523389    0.735782    0.000000
    73  Cl    s     0.183674    0.638031    0.423168    0.000000
    74  Cl    s     0.734778    0.009761    0.013414    0.000000
    75  Cl    s     0.263924    0.536509    0.992634    0.000000
    76  Cl    s     0.979527    0.072256    0.194307    0.000000
    77  Cl    s     0.534816    0.509872    0.777525    0.000000
    78  Cl    s     0.692347    0.037384    0.463569    0.000000
    79  Cl    s     0.027855    0.241674    0.521213    0.000000
    80  Cl    s     0.511540    0.806466    0.944067    0.000000
    81  Cl    s     0.489236    0.249934    0.014542    0.000000
    82  Cl    s     0.920734    0.885322    0.388074    0.000000
    83  Cl    s     0.790936    0.328427    0.718637    0.000000
    84  Cl    s     0.233898    0.783089    0.174180    0.000000
    85  Cl    s     0.736787    0.780751    0.206014    0.000000
    86  Cl    s     0.227118    0.309783    0.725128    0.000000
--------------------------------------------------------------------------------

  Final Cartesian lattice vectors (Angstroms) :

       11.135110   -0.081900    0.198121
       -0.090270   10.652771    0.033587
        0.208473    0.030240   10.789614


  Final cell parameters and derivatives :

--------------------------------------------------------------------------------
       a           11.137173 Angstrom     dE/de1(xx)    -0.000472 eV/strain
       b           10.653207 Angstrom     dE/de2(yy)    -0.001897 eV/strain
       c           10.791670 Angstrom     dE/de3(zz)    -0.004081 eV/strain
       alpha       89.668223 Degrees      dE/de4(yz)     0.000558 eV/strain
       beta        87.875013 Degrees      dE/de5(xz)    -0.000068 eV/strain
       gamma       90.903551 Degrees      dE/de6(xy)    -0.000178 eV/strain
--------------------------------------------------------------------------------

  Primitive cell volume =          1279.329450 Angs**3

  Density of cell =      1.917375 g/cm**3

  Non-primitive cell volume =          1279.329450 Angs**3


  Final internal derivatives :

--------------------------------------------------------------------------------
   No.  Atomic          a             b             c           Radius
        Label          (eV)          (eV)          (eV)        (eV/Angs)
--------------------------------------------------------------------------------
      1 Li    c       0.000000      0.000000      0.000000      0.000000
      2 Li    c       0.001676     -0.000474     -0.000082      0.000000
      3 Li    c       0.000895      0.001363     -0.000637      0.000000
      4 Li    c       0.000654      0.000256      0.000328      0.000000
      5 Li    c       0.000816     -0.001800      0.004521      0.000000
      6 Li    c       0.000293     -0.000377     -0.000582      0.000000
      7 Li    c      -0.001394     -0.001093     -0.000598      0.000000
      8 Li    c      -0.000569      0.000024     -0.002648      0.000000
      9 Li    c      -0.000648      0.000593     -0.000082      0.000000
     10 Li    c       0.000894      0.001083     -0.000571      0.000000
     11 Li    c       0.000530     -0.000885     -0.003196      0.000000
     12 Li    c       0.001737     -0.000323     -0.001029      0.000000
     13 Li    c      -0.000159     -0.002123      0.000810      0.000000
     14 Li    c       0.003233      0.001885      0.002627      0.000000
     15 Li    c      -0.000270      0.000369      0.000062      0.000000
     16 Li    c      -0.000060      0.000275      0.000044      0.000000
     17 Li    c      -0.002659     -0.001836     -0.000844      0.000000
     18 Sc    c       0.003206     -0.001480      0.000370      0.000000
     19 Sc    c       0.003195     -0.000018     -0.003305      0.000000
     20 Sc    c      -0.001186      0.000596      0.001257      0.000000
     21 Sc    c      -0.001957      0.003073      0.003991      0.000000
     22 Sc    c      -0.003186      0.001129      0.001473      0.000000
     23 Cl    c      -0.004611     -0.000845     -0.000445      0.000000
     24 Cl    c       0.000067      0.001717      0.000990      0.000000
     25 Cl    c      -0.000350     -0.000528     -0.005490      0.000000
     26 Cl    c       0.000541      0.000416      0.000031      0.000000
     27 Cl    c       0.002040      0.000196     -0.000082      0.000000
     28 Cl    c      -0.002448      0.000558     -0.001968      0.000000
     29 Cl    c       0.001028     -0.001074      0.001681      0.000000
     30 Cl    c      -0.001489     -0.000004      0.000646      0.000000
     31 Cl    c      -0.000475      0.000937      0.000952      0.000000
     32 Cl    c      -0.000259     -0.000126      0.001869      0.000000
     33 Cl    c       0.000395      0.000546      0.000820      0.000000
     34 Cl    c      -0.001993     -0.000540     -0.000234      0.000000
     35 Cl    c       0.000559      0.001415     -0.000852      0.000000
     36 Cl    c      -0.000504      0.000280     -0.001245      0.000000
     37 Cl    c       0.000231     -0.001415      0.001050      0.000000
     38 Cl    c       0.000689     -0.001041      0.000413      0.000000
     39 Cl    c      -0.000615      0.001342     -0.000618      0.000000
     40 Cl    c      -0.000794     -0.001614      0.000024      0.000000
     41 Cl    c       0.000489      0.000802      0.000700      0.000000
     42 Cl    c      -0.000448      0.000693      0.000283      0.000000
     43 Cl    c       0.002108      0.000367     -0.001038      0.000000
     44 Cl    c       0.005097     -0.001570     -0.000462      0.000000
     45 Cl    c      -0.001003      0.000056      0.000629      0.000000
     46 Cl    c      -0.001146     -0.002988     -0.001867      0.000000
     47 Cl    c       0.000011      0.001019      0.002638      0.000000
     48 Cl    c       0.000624      0.000337     -0.001314      0.000000
     49 Cl    c       0.000925     -0.001883     -0.000717      0.000000
     50 Cl    c       0.004975      0.003900     -0.000367      0.000000
     51 Cl    c      -0.001215      0.001230     -0.000511      0.000000
     52 Cl    c      -0.001606      0.001195      0.001134      0.000000
     53 Cl    c      -0.004193     -0.002085      0.000401      0.000000
     54 Cl    c      -0.001576     -0.000655      0.000107      0.000000
     55 Cl    s       0.000000      0.000000      0.000000      0.000000
     56 Cl    s       0.000000      0.000000      0.000000      0.000000
     57 Cl    s       0.000000      0.000000      0.000000      0.000000
     58 Cl    s       0.000000      0.000000      0.000000      0.000000
     59 Cl    s       0.000000      0.000000      0.000000      0.000000
     60 Cl    s       0.000000      0.000000      0.000000      0.000000
     61 Cl    s       0.000000      0.000000      0.000000      0.000000
     62 Cl    s       0.000000      0.000000      0.000000      0.000000
     63 Cl    s       0.000000      0.000000      0.000000      0.000000
     64 Cl    s       0.000000      0.000000      0.000000      0.000000
     65 Cl    s       0.000000      0.000000      0.000000      0.000000
     66 Cl    s       0.000000      0.000000      0.000000      0.000000
     67 Cl    s       0.000000      0.000000      0.000000      0.000000
     68 Cl    s       0.000000      0.000000      0.000000      0.000000
     69 Cl    s       0.000000      0.000000      0.000000      0.000000
     70 Cl    s       0.000000      0.000000      0.000000      0.000000
     71 Cl    s       0.000000      0.000000      0.000000      0.000000
     72 Cl    s       0.000000      0.000000      0.000000      0.000000
     73 Cl    s       0.000000      0.000000      0.000000      0.000000
     74 Cl    s       0.000000      0.000000      0.000000      0.000000
     75 Cl    s       0.000000      0.000000      0.000000      0.000000
     76 Cl    s       0.000000      0.000000      0.000000      0.000000
     77 Cl    s       0.000000      0.000000      0.000000      0.000000
     78 Cl    s       0.000000      0.000000      0.000000      0.000000
     79 Cl    s       0.000000      0.000000      0.000000      0.000000
     80 Cl    s       0.000000      0.000000      0.000000      0.000000
     81 Cl    s       0.000000      0.000000      0.000000      0.000000
     82 Cl    s       0.000000      0.000000      0.000000      0.000000
     83 Cl    s       0.000000      0.000000      0.000000      0.000000
     84 Cl    s       0.000000      0.000000      0.000000      0.000000
     85 Cl    s       0.000000      0.000000      0.000000      0.000000
     86 Cl    s       0.000000      0.000000      0.000000      0.000000
--------------------------------------------------------------------------------
  Maximum abs         0.005097      0.003900      0.005490      0.000000
--------------------------------------------------------------------------------

  Comparison of initial and final structures : 

--------------------------------------------------------------------------------
  Parameter   Initial value   Final value   Difference    Units      Percent
--------------------------------------------------------------------------------
    Volume      1126.065003   1279.329450   153.264446    Angs**3     13.61
    a             10.403700     11.137173     0.733473    Angstroms    7.05
    b             10.403700     10.653207     0.249507    Angstroms    2.40
    c             10.403700     10.791670     0.387970    Angstroms    3.73
    alpha         90.000000     89.668223    -0.331777    Degrees     -0.37
    beta          90.000000     87.875013    -2.124987    Degrees     -2.36
    gamma         90.000000     90.903551     0.903551    Degrees      1.00
      1 x          0.375000      0.375000     0.000000    Fractional   0.00
      1 y          0.375000      0.375000     0.000000    Fractional   0.00
      1 z          0.875000      0.875000     0.000000    Fractional   0.00
      2 x          0.250000      0.296561     0.046561    Fractional  18.62
      2 y          0.750000      0.804534     0.054534    Fractional   7.27
      2 z          0.500000      0.514433     0.014433    Fractional   2.89
      3 x          0.000000      0.877063     0.877063    Fractional   0.00
      3 y          0.750000      0.922009     0.172009    Fractional  22.93
      3 z          0.750000      0.863281     0.113281    Fractional  15.10
      4 x          0.750000      0.588994     0.161006    Fractional  21.47
      4 y          0.500000      0.670023     0.170023    Fractional  34.00
      4 z          0.250000      0.096440     0.153560    Fractional  61.42
      5 x          0.500000      0.631415     0.131415    Fractional  26.28
      5 y          0.000000      0.209437     0.209437    Fractional   0.00
      5 z          0.500000      0.585615     0.085615    Fractional  17.12
      6 x          0.125000      0.134716     0.009716    Fractional   7.77
      6 y          0.875000      0.943402     0.068402    Fractional   7.82
      6 z          0.125000      0.075789     0.049211    Fractional  39.37
      7 x          0.500000      0.556725     0.056725    Fractional  11.35
      7 y          0.500000      0.561925     0.061925    Fractional  12.39
      7 z          0.500000      0.444269     0.055731    Fractional  11.15
      8 x          0.500000      0.411891     0.088109    Fractional  17.62
      8 y          0.750000      0.691015     0.058985    Fractional   7.86
      8 z          0.750000      0.785456     0.035456    Fractional   4.73
      9 x          0.250000      0.114615     0.135385    Fractional  54.15
      9 y          0.750000      0.653493     0.096507    Fractional  12.87
      9 z          0.000000      0.858571     0.858571    Fractional   0.00
     10 x          0.250000      0.305485     0.055485    Fractional  22.19
     10 y          0.250000      0.254863     0.004863    Fractional   1.95
     10 z          0.500000      0.485849     0.014151    Fractional   2.83
     11 x          0.750000      0.941504     0.191504    Fractional  25.53
     11 y          0.250000      0.310152     0.060152    Fractional  24.06
     11 z          0.000000      0.154859     0.154859    Fractional   0.00
     12 x          0.500000      0.535809     0.035809    Fractional   7.16
     12 y          0.250000      0.300396     0.050396    Fractional  20.16
     12 z          0.250000      0.240708     0.009292    Fractional   3.72
     13 x          0.000000      0.953488     0.953488    Fractional   0.00
     13 y          0.750000      0.671891     0.078109    Fractional  10.41
     13 z          0.250000      0.438933     0.188933    Fractional  75.57
     14 x          0.750000      0.633606     0.116394    Fractional  15.52
     14 y          0.750000      0.894898     0.144898    Fractional  19.32
     14 z          0.500000      0.612935     0.112935    Fractional  22.59
     15 x          0.250000      0.213184     0.036816    Fractional  14.73
     15 y          0.000000      0.991026     0.991026    Fractional   0.00
     15 z          0.750000      0.742645     0.007355    Fractional   0.98
     16 x          0.000000      0.884133     0.884133    Fractional   0.00
     16 y          0.500000      0.653007     0.153007    Fractional  30.60
     16 z          0.000000      0.106954     0.106954    Fractional   0.00
     17 x          0.000000      0.072150     0.072150    Fractional   0.00
     17 y          0.000000      0.053583     0.053583    Fractional   0.00
     17 z          0.500000      0.411665     0.088335    Fractional  17.67
     18 x          0.250000      0.238795     0.011205    Fractional   4.48
     18 y          0.500000      0.562584     0.062584    Fractional  12.52
     18 z          0.250000      0.217247     0.032753    Fractional  13.10
     19 x          0.750000      0.744277     0.005723    Fractional   0.76
     19 y          0.500000      0.554482     0.054482    Fractional  10.90
     19 z          0.750000      0.751971     0.001971    Fractional   0.26
     20 x          0.000000      0.012212     0.012212    Fractional   0.00
     20 y          0.250000      0.290464     0.040464    Fractional  16.19
     20 z          0.750000      0.734510     0.015490    Fractional   2.07
     21 x          0.500000      0.514341     0.014341    Fractional   2.87
     21 y          0.000000      0.030547     0.030547    Fractional   0.00
     21 z          0.000000      0.975083     0.975083    Fractional   0.00
     22 x          0.750000      0.771505     0.021505    Fractional   2.87
     22 y          0.000000      0.000698     0.000698    Fractional   0.00
     22 z          0.250000      0.255615     0.005615    Fractional   2.25
     23 x          0.250000      0.267805     0.017805    Fractional   7.12
     23 y          0.250000      0.351571     0.101571    Fractional  40.63
     23 z          0.250000      0.285515     0.035515    Fractional  14.21
     24 x          0.750000      0.760917     0.010917    Fractional   1.46
     24 y          0.500000      0.573669     0.073669    Fractional  14.73
     24 z          0.500000      0.530478     0.030478    Fractional   6.10
     25 x          0.500000      0.560187     0.060187    Fractional  12.04
     25 y          0.000000      0.061881     0.061881    Fractional   0.00
     25 z          0.750000      0.757756     0.007756    Fractional   1.03
     26 x          0.000000      0.997020     0.997020    Fractional   0.00
     26 y          0.750000      0.789137     0.039137    Fractional   5.22
     26 z          0.000000      0.977727     0.977727    Fractional   0.00
     27 x          0.250000      0.302420     0.052420    Fractional  20.97
     27 y          0.000000      0.025747     0.025747    Fractional   0.00
     27 z          0.000000      0.940060     0.940060    Fractional   0.00
     28 x          0.750000      0.763564     0.013564    Fractional   1.81
     28 y          0.750000      0.778483     0.028483    Fractional   3.80
     28 z          0.750000      0.744045     0.005955    Fractional   0.79
     29 x          0.500000      0.511789     0.011789    Fractional   2.36
     29 y          0.250000      0.336637     0.086637    Fractional  34.65
     29 z          0.500000      0.465734     0.034266    Fractional   6.85
     30 x          0.000000      0.021322     0.021322    Fractional   0.00
     30 y          0.500000      0.533758     0.033758    Fractional   6.75
     30 z          0.250000      0.209827     0.040173    Fractional  16.07
     31 x          0.500000      0.495317     0.004683    Fractional   0.94
     31 y          0.750000      0.736105     0.013895    Fractional   1.85
     31 z          0.500000      0.570989     0.070989    Fractional  14.20
     32 x          0.750000      0.746136     0.003864    Fractional   0.52
     32 y          0.500000      0.568342     0.068342    Fractional  13.67
     32 z          0.000000      0.971558     0.971558    Fractional   0.00
     33 x          0.000000      0.011736     0.011736    Fractional   0.00
     33 y          0.000000      0.070062     0.070062    Fractional   0.00
     33 z          0.750000      0.774670     0.024670    Fractional   3.29
     34 x          0.000000      0.992897     0.992897    Fractional   0.00
     34 y          0.250000      0.329277     0.079277    Fractional  31.71
     34 z          0.000000      0.949008     0.949008    Fractional   0.00
     35 x          0.500000      0.457296     0.042704    Fractional   8.54
     35 y          0.500000      0.570944     0.070944    Fractional  14.19
     35 z          0.250000      0.240148     0.009852    Fractional   3.94
     36 x          0.250000      0.247268     0.002732    Fractional   1.09
     36 y          0.000000      0.026706     0.026706    Fractional   0.00
     36 z          0.500000      0.523113     0.023113    Fractional   4.62
     37 x          0.250000      0.235373     0.014627    Fractional   5.85
     37 y          0.750000      0.775922     0.025922    Fractional   3.46
     37 z          0.750000      0.733345     0.016655    Fractional   2.22
     38 x          0.500000      0.549319     0.049319    Fractional   9.86
     38 y          0.000000      0.016415     0.016415    Fractional   0.00
     38 z          0.250000      0.196420     0.053580    Fractional  21.43
     39 x          0.750000      0.747850     0.002150    Fractional   0.29
     39 y          0.250000      0.229014     0.020986    Fractional   8.39
     39 z          0.250000      0.233015     0.016985    Fractional   6.79
     40 x          0.000000      0.968291     0.968291    Fractional   0.00
     40 y          0.500000      0.523389     0.023389    Fractional   4.68
     40 z          0.750000      0.735782     0.014218    Fractional   1.90
     41 x          0.250000      0.183674     0.066326    Fractional  26.53
     41 y          0.500000      0.638031     0.138031    Fractional  27.61
     41 z          0.500000      0.423168     0.076832    Fractional  15.37
     42 x          0.750000      0.734778     0.015222    Fractional   2.03
     42 y          0.000000      0.009761     0.009761    Fractional   0.00
     42 z          0.000000      0.013414     0.013414    Fractional   0.00
     43 x          0.250000      0.263924     0.013924    Fractional   5.57
     43 y          0.500000      0.536509     0.036509    Fractional   7.30
     43 z          0.000000      0.992634     0.992634    Fractional   0.00
     44 x          0.000000      0.979527     0.979527    Fractional   0.00
     44 y          0.000000      0.072256     0.072256    Fractional   0.00
     44 z          0.250000      0.194307     0.055693    Fractional  22.28
     45 x          0.500000      0.534816     0.034816    Fractional   6.96
     45 y          0.500000      0.509872     0.009872    Fractional   1.97
     45 z          0.750000      0.777525     0.027525    Fractional   3.67
     46 x          0.750000      0.692347     0.057653    Fractional   7.69
     46 y          0.000000      0.037384     0.037384    Fractional   0.00
     46 z          0.500000      0.463569     0.036431    Fractional   7.29
     47 x          0.000000      0.027855     0.027855    Fractional   0.00
     47 y          0.250000      0.241674     0.008326    Fractional   3.33
     47 z          0.500000      0.521213     0.021213    Fractional   4.24
     48 x          0.500000      0.511540     0.011540    Fractional   2.31
     48 y          0.750000      0.806466     0.056466    Fractional   7.53
     48 z          0.000000      0.944067     0.944067    Fractional   0.00
     49 x          0.500000      0.489236     0.010764    Fractional   2.15
     49 y          0.250000      0.249935     0.000065    Fractional   0.03
     49 z          0.000000      0.014542     0.014542    Fractional   0.00
     50 x          0.000000      0.920734     0.920734    Fractional   0.00
     50 y          0.750000      0.885322     0.135322    Fractional  18.04
     50 z          0.500000      0.388074     0.111926    Fractional  22.39
     51 x          0.750000      0.790936     0.040936    Fractional   5.46
     51 y          0.250000      0.328427     0.078427    Fractional  31.37
     51 z          0.750000      0.718637     0.031363    Fractional   4.18
     52 x          0.250000      0.233898     0.016102    Fractional   6.44
     52 y          0.750000      0.783089     0.033089    Fractional   4.41
     52 z          0.250000      0.174180     0.075820    Fractional  30.33
     53 x          0.750000      0.736787     0.013213    Fractional   1.76
     53 y          0.750000      0.780751     0.030751    Fractional   4.10
     53 z          0.250000      0.206014     0.043986    Fractional  17.59
     54 x          0.250000      0.227118     0.022882    Fractional   9.15
     54 y          0.250000      0.309783     0.059783    Fractional  23.91
     54 z          0.750000      0.725128     0.024872    Fractional   3.32
     55 x          0.250000      0.267805     0.017805    Fractional   7.12
     55 y          0.250000      0.351571     0.101571    Fractional  40.63
     55 z          0.250000      0.285515     0.035515    Fractional  14.21
     56 x          0.750000      0.760917     0.010917    Fractional   1.46
     56 y          0.500000      0.573669     0.073669    Fractional  14.73
     56 z          0.500000      0.530478     0.030478    Fractional   6.10
     57 x          0.500000      0.560187     0.060187    Fractional  12.04
     57 y          0.000000      0.061881     0.061881    Fractional   0.00
     57 z          0.750000      0.757756     0.007756    Fractional   1.03
     58 x          0.000000      0.997020     0.997020    Fractional   0.00
     58 y          0.750000      0.789137     0.039137    Fractional   5.22
     58 z          0.000000      0.977727     0.977727    Fractional   0.00
     59 x          0.250000      0.302420     0.052420    Fractional  20.97
     59 y          0.000000      0.025747     0.025747    Fractional   0.00
     59 z          0.000000      0.940060     0.940060    Fractional   0.00
     60 x          0.750000      0.763564     0.013564    Fractional   1.81
     60 y          0.750000      0.778483     0.028483    Fractional   3.80
     60 z          0.750000      0.744045     0.005955    Fractional   0.79
     61 x          0.500000      0.511789     0.011789    Fractional   2.36
     61 y          0.250000      0.336637     0.086637    Fractional  34.65
     61 z          0.500000      0.465734     0.034266    Fractional   6.85
     62 x          0.000000      0.021322     0.021322    Fractional   0.00
     62 y          0.500000      0.533758     0.033758    Fractional   6.75
     62 z          0.250000      0.209827     0.040173    Fractional  16.07
     63 x          0.500000      0.495317     0.004683    Fractional   0.94
     63 y          0.750000      0.736105     0.013895    Fractional   1.85
     63 z          0.500000      0.570989     0.070989    Fractional  14.20
     64 x          0.750000      0.746136     0.003864    Fractional   0.52
     64 y          0.500000      0.568342     0.068342    Fractional  13.67
     64 z          0.000000      0.971558     0.971558    Fractional   0.00
     65 x          0.000000      0.011736     0.011736    Fractional   0.00
     65 y          0.000000      0.070062     0.070062    Fractional   0.00
     65 z          0.750000      0.774670     0.024670    Fractional   3.29
     66 x          0.000000      0.992897     0.992897    Fractional   0.00
     66 y          0.250000      0.329277     0.079277    Fractional  31.71
     66 z          0.000000      0.949008     0.949008    Fractional   0.00
     67 x          0.500000      0.457296     0.042704    Fractional   8.54
     67 y          0.500000      0.570944     0.070944    Fractional  14.19
     67 z          0.250000      0.240148     0.009852    Fractional   3.94
     68 x          0.250000      0.247268     0.002732    Fractional   1.09
     68 y          0.000000      0.026706     0.026706    Fractional   0.00
     68 z          0.500000      0.523113     0.023113    Fractional   4.62
     69 x          0.250000      0.235373     0.014627    Fractional   5.85
     69 y          0.750000      0.775922     0.025922    Fractional   3.46
     69 z          0.750000      0.733345     0.016655    Fractional   2.22
     70 x          0.500000      0.549319     0.049319    Fractional   9.86
     70 y          0.000000      0.016415     0.016415    Fractional   0.00
     70 z          0.250000      0.196420     0.053580    Fractional  21.43
     71 x          0.750000      0.747850     0.002150    Fractional   0.29
     71 y          0.250000      0.229014     0.020986    Fractional   8.39
     71 z          0.250000      0.233015     0.016985    Fractional   6.79
     72 x          0.000000      0.968291     0.968291    Fractional   0.00
     72 y          0.500000      0.523389     0.023389    Fractional   4.68
     72 z          0.750000      0.735782     0.014218    Fractional   1.90
     73 x          0.250000      0.183674     0.066326    Fractional  26.53
     73 y          0.500000      0.638031     0.138031    Fractional  27.61
     73 z          0.500000      0.423168     0.076832    Fractional  15.37
     74 x          0.750000      0.734778     0.015222    Fractional   2.03
     74 y          0.000000      0.009761     0.009761    Fractional   0.00
     74 z          0.000000      0.013414     0.013414    Fractional   0.00
     75 x          0.250000      0.263924     0.013924    Fractional   5.57
     75 y          0.500000      0.536509     0.036509    Fractional   7.30
     75 z          0.000000      0.992634     0.992634    Fractional   0.00
     76 x          0.000000      0.979527     0.979527    Fractional   0.00
     76 y          0.000000      0.072256     0.072256    Fractional   0.00
     76 z          0.250000      0.194307     0.055693    Fractional  22.28
     77 x          0.500000      0.534816     0.034816    Fractional   6.96
     77 y          0.500000      0.509872     0.009872    Fractional   1.97
     77 z          0.750000      0.777525     0.027525    Fractional   3.67
     78 x          0.750000      0.692347     0.057653    Fractional   7.69
     78 y          0.000000      0.037384     0.037384    Fractional   0.00
     78 z          0.500000      0.463569     0.036431    Fractional   7.29
     79 x          0.000000      0.027855     0.027855    Fractional   0.00
     79 y          0.250000      0.241674     0.008326    Fractional   3.33
     79 z          0.500000      0.521213     0.021213    Fractional   4.24
     80 x          0.500000      0.511540     0.011540    Fractional   2.31
     80 y          0.750000      0.806466     0.056466    Fractional   7.53
     80 z          0.000000      0.944067     0.944067    Fractional   0.00
     81 x          0.500000      0.489236     0.010764    Fractional   2.15
     81 y          0.250000      0.249934     0.000066    Fractional   0.03
     81 z          0.000000      0.014542     0.014542    Fractional   0.00
     82 x          0.000000      0.920734     0.920734    Fractional   0.00
     82 y          0.750000      0.885322     0.135322    Fractional  18.04
     82 z          0.500000      0.388074     0.111926    Fractional  22.39
     83 x          0.750000      0.790936     0.040936    Fractional   5.46
     83 y          0.250000      0.328427     0.078427    Fractional  31.37
     83 z          0.750000      0.718637     0.031363    Fractional   4.18
     84 x          0.250000      0.233898     0.016102    Fractional   6.44
     84 y          0.750000      0.783089     0.033089    Fractional   4.41
     84 z          0.250000      0.174180     0.075820    Fractional  30.33
     85 x          0.750000      0.736787     0.013213    Fractional   1.76
     85 y          0.750000      0.780751     0.030751    Fractional   4.10
     85 z          0.250000      0.206014     0.043986    Fractional  17.59
     86 x          0.250000      0.227118     0.022882    Fractional   9.15
     86 y          0.250000      0.309783     0.059783    Fractional  23.91
     86 z          0.750000      0.725128     0.024872    Fractional   3.32
--------------------------------------------------------------------------------


  Time to end of optimisation =       3.4752 seconds


  Peak dynamic memory used =       3.49 MB 


  Timing analysis for GULP :

--------------------------------------------------------------------------------
  Task / Subroutine                                          Time (Seconds)
--------------------------------------------------------------------------------
  Calculation of reciprocal space energy and derivatives          0.3381
  Calculation of real space energy and derivatives                3.0596
  Calculation and manipulation of Hessian matrix                  0.0017
  Calculation of matrix inversion                                 0.0491
  Global summation overhead                                       0.0002
--------------------------------------------------------------------------------
  Total CPU time                                                  3.4752
--------------------------------------------------------------------------------


  Dump file written as halospinel.grs



  **** GULP has completed with   3 warnings - beware! ****

  Job Finished at 14:26.33  7th March      2022                               

