ITEM: TIMESTEP
0
ITEM: NUMBER OF ATOMS
1458
ITEM: BOX BOUNDS xy xz yz pp pp pp
-1.0681139225750498e+00 3.1768555640020178e+01 -3.4462023997898279e-02
-1.4208058931420289e+00 3.2264828496812072e+01 -1.0598191856576492e-01
-1.2956563009725393e+00 3.2156963481401696e+01 -9.5900442286863355e-02
ITEM: ATOMS element x y z
Li 9.266250105900001 9.4091667742 20.099999999999998 
Li 9.266250105900001 30.915833225799997 30.819999892799995 
Li 19.85625 20.162499999999998 30.819999892799995 
Li 14.5612498941 4.0325 9.380000107199999 
Li 25.1512501059 14.7858332258 20.099999999999998 
Li 25.1512501059 25.539166774199998 9.380000107199999 
Li 3.97125 30.915833225799997 14.739999892799998 
Li 14.5612498941 9.4091667742 4.02 
Li 19.85625 4.0325 14.739999892799998 
Li 19.85625 14.7858332258 25.4600001072 
Li 30.4462498941 14.7858332258 14.739999892799998 
Li 11.91375 1.3441667742 1.3400001071999998 
Li 11.91375 1.3441667742 12.059999999999999 
Li 11.91375 22.8508332258 12.059999999999999 
Li 6.6187498941000005 6.7208332258 1.3400001071999998 
Li 17.208750105900002 28.2275 1.3400001071999998 
Li 6.6187498941000005 12.0975 6.699999892799999 
Li 6.6187498941000005 22.8508332258 17.4200001072 
Li 17.208750105900002 22.8508332258 28.139999999999997 
Li 1.3237501059 28.2275 6.699999892799999 
Li 1.3237501059 28.2275 17.4200001072 
Li 11.91375 6.7208332258 28.139999999999997 
Li 22.5037498941 17.4741667742 6.699999892799999 
Li 2.6474998941 24.195 32.16 
Li 13.2375001059 24.195 10.719999892799999 
Li 23.8275 2.6883332257999997 32.16 
Li 23.8275 13.4416667742 32.16 
Li 23.8275 24.195 10.719999892799999 
Li 7.9425 8.065 10.719999892799999 
Li 7.9425 8.065 21.4400001072 
Li 18.5324998941 18.8183332258 0.0 
Li 29.1225001059 18.8183332258 10.719999892799999 
Li 29.1225001059 29.571666774199997 32.16 
Li 29.1225001059 29.571666774199997 10.719999892799999 
Li 7.9425 2.6883332257999997 26.799999892799995 
Li 7.9425 24.195 5.360000107199999 
Li 18.5324998941 2.6883332257999997 26.799999892799995 
Li 2.6474998941 8.065 26.799999892799995 
Li 13.2375001059 18.8183332258 5.360000107199999 
Li 13.2375001059 29.571666774199997 5.360000107199999 
Li 13.2375001059 29.571666774199997 16.08 
Li 23.8275 8.065 26.799999892799995 
Li 23.8275 18.8183332258 5.360000107199999 
Li 23.8275 29.571666774199997 26.799999892799995 
Li 2.6474998941 10.753333225799999 2.6799998927999997 
Li 13.2375001059 21.5066667742 13.400000107199999 
Li 23.8275 0.0 24.119999999999997 
Li 23.8275 10.753333225799999 2.6799998927999997 
Li 23.8275 10.753333225799999 24.119999999999997 
Li 7.9425 16.13 2.6799998927999997 
Li 7.9425 16.13 13.400000107199999 
Li 7.9425 26.883333225799998 2.6799998927999997 
Li 18.5324998941 5.376666774199999 13.400000107199999 
Li 18.5324998941 16.13 13.400000107199999 
Li 18.5324998941 16.13 24.119999999999997 
Li 29.1225001059 16.13 2.6799998927999997 
Li 29.1225001059 16.13 13.400000107199999 
Li 29.1225001059 26.883333225799998 13.400000107199999 
Li 7.9425 0.0 8.04 
Li 7.9425 0.0 29.4800001072 
Li 7.9425 10.753333225799999 29.4800001072 
Li 18.5324998941 0.0 29.4800001072 
Li 18.5324998941 10.753333225799999 8.04 
Li 29.1225001059 0.0 8.04 
Li 29.1225001059 0.0 18.759999892799996 
Li 29.1225001059 0.0 29.4800001072 
Li 29.1225001059 10.753333225799999 29.4800001072 
Li 29.1225001059 21.5066667742 29.4800001072 
Li 2.6474998941 16.13 8.04 
Li 2.6474998941 16.13 18.759999892799996 
Li 23.8275 5.376666774199999 8.04 
Li 23.8275 5.376666774199999 18.759999892799996 
Li 0.0 13.4416667742 13.400000107199999 
Li 0.0 13.4416667742 24.119999999999997 
Li 0.0 24.195 13.400000107199999 
Li 10.5899998941 2.6883332257999997 2.6799998927999997 
Li 10.5899998941 13.4416667742 24.119999999999997 
Li 10.5899998941 24.195 24.119999999999997 
Li 21.1800001059 2.6883332257999997 2.6799998927999997 
Li 21.1800001059 24.195 13.400000107199999 
Li 21.1800001059 24.195 24.119999999999997 
Li 5.2950001059 8.065 13.400000107199999 
Li 5.2950001059 8.065 24.119999999999997 
Li 5.2950001059 29.571666774199997 2.6799998927999997 
Li 15.885 8.065 2.6799998927999997 
Li 15.885 18.8183332258 2.6799998927999997 
Li 15.885 29.571666774199997 24.119999999999997 
Li 26.474999894099998 18.8183332258 24.119999999999997 
Li 26.474999894099998 29.571666774199997 24.119999999999997 
Li 5.2950001059 24.195 8.04 
Li 5.2950001059 24.195 29.4800001072 
Li 15.885 2.6883332257999997 8.04 
Li 15.885 2.6883332257999997 18.759999892799996 
Li 15.885 13.4416667742 8.04 
Li 15.885 13.4416667742 29.4800001072 
Li 26.474999894099998 2.6883332257999997 18.759999892799996 
Li 26.474999894099998 13.4416667742 18.759999892799996 
Li 26.474999894099998 13.4416667742 29.4800001072 
Li 26.474999894099998 24.195 18.759999892799996 
Li 0.0 18.8183332258 8.04 
Li 0.0 29.571666774199997 29.4800001072 
Li 10.5899998941 29.571666774199997 8.04 
Li 10.5899998941 29.571666774199997 29.4800001072 
Li 21.1800001059 29.571666774199997 8.04 
Li 10.5899998941 0.0 10.719999892799999 
Li 10.5899998941 10.753333225799999 32.16 
Li 10.5899998941 10.753333225799999 10.719999892799999 
Li 10.5899998941 21.5066667742 32.16 
Li 10.5899998941 21.5066667742 10.719999892799999 
Li 21.1800001059 21.5066667742 10.719999892799999 
Li 5.2950001059 5.376666774199999 10.719999892799999 
Li 5.2950001059 16.13 21.4400001072 
Li 5.2950001059 26.883333225799998 32.16 
Li 5.2950001059 26.883333225799998 10.719999892799999 
Li 15.885 5.376666774199999 10.719999892799999 
Li 15.885 5.376666774199999 21.4400001072 
Li 26.474999894099998 5.376666774199999 10.719999892799999 
Li 5.2950001059 10.753333225799999 26.799999892799995 
Li 5.2950001059 21.5066667742 16.08 
Li 15.885 0.0 16.08 
Li 26.474999894099998 0.0 16.08 
Li 26.474999894099998 10.753333225799999 5.360000107199999 
Li 26.474999894099998 10.753333225799999 26.799999892799995 
Li 26.474999894099998 21.5066667742 26.799999892799995 
Li 0.0 5.376666774199999 26.799999892799995 
Li 0.0 16.13 5.360000107199999 
Li 0.0 16.13 16.08 
Li 10.5899998941 26.883333225799998 26.799999892799995 
Li 21.1800001059 16.13 26.799999892799995 
Li 9.266250105900001 6.7208332258 6.699999892799999 
Li 19.85625 6.7208332258 28.139999999999997 
Li 19.85625 28.2275 17.4200001072 
Li 30.4462498941 6.7208332258 28.139999999999997 
Li 25.1512501059 22.8508332258 6.699999892799999 
Li 9.266250105900001 1.3441667742 12.059999999999999 
Li 11.91375 4.0325 28.139999999999997 
Li 22.5037498941 20.162499999999998 22.779999892799996 
Li 6.6187498941000005 4.0325 22.779999892799996 
Li 27.79875 14.7858332258 12.059999999999999 
Li 11.91375 17.4741667742 9.380000107199999 
Li 17.208750105900002 22.8508332258 9.380000107199999 
Li 17.208750105900002 6.7208332258 30.819999892799995 
Li 1.3237501059 12.0975 30.819999892799995 
Li 22.5037498941 1.3441667742 30.819999892799995 
Li 6.6187498941000005 22.8508332258 14.739999892799998 
Li 22.5037498941 25.539166774199998 12.059999999999999 
Li 19.85625 12.0975 28.139999999999997 
Li 14.5612498941 1.3441667742 1.3400001071999998 
Li 25.1512501059 22.8508332258 12.059999999999999 
Li 22.5037498941 9.4091667742 25.4600001072 
Li 22.5037498941 30.915833225799997 4.02 
Li 6.6187498941000005 20.162499999999998 20.099999999999998 
Li 25.1512501059 6.7208332258 14.739999892799998 
Li 9.266250105900001 22.8508332258 14.739999892799998 
Li 9.266250105900001 17.4741667742 30.819999892799995 
Li 19.85625 28.2275 30.819999892799995 
Li 25.1512501059 12.0975 20.099999999999998 
Li 3.97125 4.0325 28.139999999999997 
Li 14.5612498941 14.7858332258 28.139999999999997 
Li 3.97125 9.4091667742 1.3400001071999998 
Li 25.1512501059 20.162499999999998 1.3400001071999998 
Li 22.5037498941 4.0325 4.02 
Li 5.2950001059 5.376666774199999 5.360000107199999 
Li 5.2950001059 5.376666774199999 26.799999892799995 
Li 5.2950001059 16.13 5.360000107199999 
Li 5.2950001059 16.13 16.08 
Li 5.2950001059 16.13 26.799999892799995 
Li 5.2950001059 26.883333225799998 16.08 
Li 5.2950001059 26.883333225799998 26.799999892799995 
Li 15.885 5.376666774199999 26.799999892799995 
Li 15.885 16.13 16.08 
Li 15.885 16.13 26.799999892799995 
Li 15.885 26.883333225799998 26.799999892799995 
Li 26.474999894099998 5.376666774199999 5.360000107199999 
Li 26.474999894099998 5.376666774199999 26.799999892799995 
Li 26.474999894099998 16.13 5.360000107199999 
Li 26.474999894099998 16.13 26.799999892799995 
Li 26.474999894099998 26.883333225799998 16.08 
Li 26.474999894099998 26.883333225799998 26.799999892799995 
Li 0.0 0.0 16.08 
Li 0.0 0.0 26.799999892799995 
Li 0.0 10.753333225799999 5.360000107199999 
Li 0.0 10.753333225799999 26.799999892799995 
Li 0.0 21.5066667742 5.360000107199999 
Li 0.0 21.5066667742 16.08 
Li 0.0 21.5066667742 26.799999892799995 
Li 10.5899998941 0.0 5.360000107199999 
Li 10.5899998941 0.0 16.08 
Li 10.5899998941 0.0 26.799999892799995 
Li 10.5899998941 10.753333225799999 5.360000107199999 
Li 10.5899998941 10.753333225799999 16.08 
Li 10.5899998941 21.5066667742 5.360000107199999 
Li 10.5899998941 21.5066667742 16.08 
Li 10.5899998941 21.5066667742 26.799999892799995 
Li 21.1800001059 0.0 16.08 
Li 21.1800001059 0.0 26.799999892799995 
Li 21.1800001059 10.753333225799999 16.08 
Li 21.1800001059 10.753333225799999 26.799999892799995 
Li 21.1800001059 21.5066667742 5.360000107199999 
Li 21.1800001059 21.5066667742 26.799999892799995 
Li 0.0 5.376666774199999 0.0 
Li 0.0 5.376666774199999 10.719999892799999 
Li 0.0 5.376666774199999 21.4400001072 
Li 0.0 16.13 32.16 
Li 0.0 16.13 10.719999892799999 
Li 0.0 16.13 21.4400001072 
Li 0.0 26.883333225799998 0.0 
Li 0.0 26.883333225799998 10.719999892799999 
Li 10.5899998941 5.376666774199999 32.16 
Li 10.5899998941 5.376666774199999 10.719999892799999 
Li 10.5899998941 5.376666774199999 21.4400001072 
Li 10.5899998941 16.13 32.16 
Li 10.5899998941 26.883333225799998 32.16 
Li 10.5899998941 26.883333225799998 21.4400001072 
Li 21.1800001059 5.376666774199999 0.0 
Li 21.1800001059 5.376666774199999 21.4400001072 
Li 21.1800001059 16.13 32.16 
Li 21.1800001059 16.13 10.719999892799999 
Li 21.1800001059 16.13 21.4400001072 
Li 21.1800001059 26.883333225799998 32.16 
Li 21.1800001059 26.883333225799998 10.719999892799999 
Li 21.1800001059 26.883333225799998 21.4400001072 
Li 5.2950001059 0.0 0.0 
Li 5.2950001059 0.0 10.719999892799999 
Li 5.2950001059 10.753333225799999 0.0 
Li 5.2950001059 10.753333225799999 10.719999892799999 
Li 5.2950001059 21.5066667742 10.719999892799999 
Li 15.885 0.0 32.16 
Li 15.885 0.0 10.719999892799999 
Li 15.885 10.753333225799999 10.719999892799999 
Li 15.885 10.753333225799999 21.4400001072 
Li 15.885 21.5066667742 0.0 
Li 15.885 21.5066667742 10.719999892799999 
Li 15.885 21.5066667742 21.4400001072 
Li 26.474999894099998 0.0 21.4400001072 
Li 26.474999894099998 21.5066667742 32.16 
Li 26.474999894099998 21.5066667742 10.719999892799999 
Li 26.474999894099998 21.5066667742 21.4400001072 
Li 5.2950001059 2.6883332257999997 2.6799998927999997 
Li 5.2950001059 2.6883332257999997 13.400000107199999 
Li 5.2950001059 2.6883332257999997 24.119999999999997 
Li 5.2950001059 13.4416667742 24.119999999999997 
Li 15.885 2.6883332257999997 2.6799998927999997 
Li 15.885 13.4416667742 2.6799998927999997 
Li 15.885 13.4416667742 24.119999999999997 
Li 15.885 24.195 24.119999999999997 
Li 26.474999894099998 2.6883332257999997 2.6799998927999997 
Li 26.474999894099998 2.6883332257999997 13.400000107199999 
Li 26.474999894099998 13.4416667742 13.400000107199999 
Li 26.474999894099998 24.195 13.400000107199999 
Li 0.0 8.065 13.400000107199999 
Li 0.0 8.065 24.119999999999997 
Li 0.0 18.8183332258 2.6799998927999997 
Li 0.0 18.8183332258 13.400000107199999 
Li 0.0 18.8183332258 24.119999999999997 
Li 0.0 29.571666774199997 2.6799998927999997 
Li 10.5899998941 8.065 2.6799998927999997 
Li 10.5899998941 8.065 13.400000107199999 
Li 10.5899998941 18.8183332258 2.6799998927999997 
Li 10.5899998941 18.8183332258 24.119999999999997 
Li 10.5899998941 29.571666774199997 2.6799998927999997 
Li 10.5899998941 29.571666774199997 13.400000107199999 
Li 21.1800001059 8.065 13.400000107199999 
Li 21.1800001059 18.8183332258 2.6799998927999997 
Li 21.1800001059 18.8183332258 13.400000107199999 
Li 21.1800001059 18.8183332258 24.119999999999997 
Li 21.1800001059 29.571666774199997 2.6799998927999997 
Li 21.1800001059 29.571666774199997 13.400000107199999 
Li 21.1800001059 29.571666774199997 24.119999999999997 
Li 0.0 2.6883332257999997 29.4800001072 
Li 0.0 13.4416667742 8.04 
Li 0.0 13.4416667742 18.759999892799996 
Li 0.0 13.4416667742 29.4800001072 
Li 0.0 24.195 8.04 
Li 10.5899998941 2.6883332257999997 18.759999892799996 
Li 10.5899998941 2.6883332257999997 29.4800001072 
Li 10.5899998941 13.4416667742 8.04 
Li 10.5899998941 13.4416667742 29.4800001072 
Li 10.5899998941 24.195 8.04 
Li 10.5899998941 24.195 18.759999892799996 
Li 10.5899998941 24.195 29.4800001072 
Li 21.1800001059 2.6883332257999997 8.04 
Li 21.1800001059 2.6883332257999997 18.759999892799996 
Li 21.1800001059 2.6883332257999997 29.4800001072 
Li 21.1800001059 13.4416667742 18.759999892799996 
Li 21.1800001059 24.195 8.04 
Li 21.1800001059 24.195 18.759999892799996 
Li 5.2950001059 8.065 8.04 
Li 5.2950001059 8.065 18.759999892799996 
Li 5.2950001059 18.8183332258 8.04 
Li 5.2950001059 18.8183332258 29.4800001072 
Li 5.2950001059 29.571666774199997 8.04 
Li 5.2950001059 29.571666774199997 18.759999892799996 
Li 5.2950001059 29.571666774199997 29.4800001072 
Li 15.885 8.065 29.4800001072 
Li 15.885 18.8183332258 8.04 
Li 15.885 18.8183332258 29.4800001072 
Li 15.885 29.571666774199997 8.04 
Li 15.885 29.571666774199997 18.759999892799996 
Li 15.885 29.571666774199997 29.4800001072 
Li 26.474999894099998 8.065 8.04 
Li 26.474999894099998 8.065 18.759999892799996 
Li 26.474999894099998 8.065 29.4800001072 
Li 26.474999894099998 18.8183332258 18.759999892799996 
Li 26.474999894099998 18.8183332258 29.4800001072 
Li 26.474999894099998 29.571666774199997 18.759999892799996 
Li 26.474999894099998 29.571666774199997 29.4800001072 
Li 2.6474998941 5.376666774199999 2.6799998927999997 
Li 2.6474998941 16.13 2.6799998927999997 
Li 2.6474998941 16.13 13.400000107199999 
Li 2.6474998941 16.13 24.119999999999997 
Li 13.2375001059 5.376666774199999 2.6799998927999997 
Li 13.2375001059 5.376666774199999 13.400000107199999 
Li 13.2375001059 5.376666774199999 24.119999999999997 
Li 13.2375001059 16.13 24.119999999999997 
Li 23.8275 5.376666774199999 2.6799998927999997 
Li 23.8275 5.376666774199999 13.400000107199999 
Li 23.8275 5.376666774199999 24.119999999999997 
Li 23.8275 16.13 24.119999999999997 
Li 23.8275 26.883333225799998 13.400000107199999 
Li 7.9425 0.0 2.6799998927999997 
Li 7.9425 0.0 13.400000107199999 
Li 7.9425 0.0 24.119999999999997 
Li 7.9425 10.753333225799999 2.6799998927999997 
Li 7.9425 10.753333225799999 13.400000107199999 
Li 7.9425 21.5066667742 2.6799998927999997 
Li 7.9425 21.5066667742 13.400000107199999 
Li 7.9425 21.5066667742 24.119999999999997 
Li 18.5324998941 0.0 2.6799998927999997 
Li 18.5324998941 0.0 24.119999999999997 
Li 18.5324998941 10.753333225799999 13.400000107199999 
Li 18.5324998941 10.753333225799999 24.119999999999997 
Li 18.5324998941 21.5066667742 2.6799998927999997 
Li 18.5324998941 21.5066667742 13.400000107199999 
Li 18.5324998941 21.5066667742 24.119999999999997 
Li 29.1225001059 0.0 2.6799998927999997 
Li 29.1225001059 0.0 24.119999999999997 
Li 29.1225001059 10.753333225799999 13.400000107199999 
Li 29.1225001059 21.5066667742 2.6799998927999997 
Li 29.1225001059 21.5066667742 13.400000107199999 
Li 29.1225001059 21.5066667742 24.119999999999997 
Li 7.9425 5.376666774199999 8.04 
Li 7.9425 5.376666774199999 18.759999892799996 
Li 7.9425 5.376666774199999 29.4800001072 
Li 7.9425 16.13 8.04 
Li 7.9425 16.13 18.759999892799996 
Li 7.9425 26.883333225799998 8.04 
Li 7.9425 26.883333225799998 18.759999892799996 
Li 7.9425 26.883333225799998 29.4800001072 
Li 18.5324998941 5.376666774199999 18.759999892799996 
Li 18.5324998941 5.376666774199999 29.4800001072 
Li 18.5324998941 16.13 8.04 
Li 18.5324998941 16.13 18.759999892799996 
Li 18.5324998941 26.883333225799998 8.04 
Li 18.5324998941 26.883333225799998 18.759999892799996 
Li 29.1225001059 5.376666774199999 8.04 
Li 29.1225001059 16.13 18.759999892799996 
Li 29.1225001059 26.883333225799998 8.04 
Li 29.1225001059 26.883333225799998 18.759999892799996 
Li 29.1225001059 26.883333225799998 29.4800001072 
Li 2.6474998941 0.0 8.04 
Li 2.6474998941 0.0 18.759999892799996 
Li 2.6474998941 0.0 29.4800001072 
Li 2.6474998941 10.753333225799999 8.04 
Li 2.6474998941 10.753333225799999 18.759999892799996 
Li 2.6474998941 10.753333225799999 29.4800001072 
Li 2.6474998941 21.5066667742 8.04 
Li 2.6474998941 21.5066667742 18.759999892799996 
Li 13.2375001059 0.0 29.4800001072 
Li 13.2375001059 10.753333225799999 8.04 
Li 13.2375001059 10.753333225799999 18.759999892799996 
Li 13.2375001059 10.753333225799999 29.4800001072 
Li 13.2375001059 21.5066667742 8.04 
Li 13.2375001059 21.5066667742 29.4800001072 
Li 23.8275 0.0 8.04 
Li 23.8275 0.0 18.759999892799996 
Li 23.8275 10.753333225799999 8.04 
Li 23.8275 10.753333225799999 18.759999892799996 
Li 23.8275 10.753333225799999 29.4800001072 
Li 23.8275 21.5066667742 8.04 
Li 2.6474998941 2.6883332257999997 5.360000107199999 
Li 2.6474998941 2.6883332257999997 16.08 
Li 2.6474998941 2.6883332257999997 26.799999892799995 
Li 2.6474998941 13.4416667742 5.360000107199999 
Li 2.6474998941 13.4416667742 16.08 
Li 2.6474998941 24.195 5.360000107199999 
Li 2.6474998941 24.195 16.08 
Li 13.2375001059 2.6883332257999997 5.360000107199999 
Li 13.2375001059 2.6883332257999997 16.08 
Li 13.2375001059 13.4416667742 5.360000107199999 
Li 13.2375001059 13.4416667742 16.08 
Li 13.2375001059 13.4416667742 26.799999892799995 
Li 13.2375001059 24.195 16.08 
Li 13.2375001059 24.195 26.799999892799995 
Li 23.8275 2.6883332257999997 16.08 
Li 23.8275 13.4416667742 5.360000107199999 
Li 23.8275 13.4416667742 16.08 
Li 23.8275 13.4416667742 26.799999892799995 
Li 23.8275 24.195 5.360000107199999 
Li 23.8275 24.195 26.799999892799995 
Li 7.9425 8.065 5.360000107199999 
Li 7.9425 8.065 26.799999892799995 
Li 7.9425 18.8183332258 5.360000107199999 
Li 7.9425 18.8183332258 26.799999892799995 
Li 7.9425 29.571666774199997 16.08 
Li 18.5324998941 8.065 5.360000107199999 
Li 18.5324998941 8.065 26.799999892799995 
Li 18.5324998941 18.8183332258 5.360000107199999 
Li 18.5324998941 18.8183332258 26.799999892799995 
Li 18.5324998941 29.571666774199997 5.360000107199999 
Li 18.5324998941 29.571666774199997 16.08 
Li 18.5324998941 29.571666774199997 26.799999892799995 
Li 29.1225001059 8.065 26.799999892799995 
Li 29.1225001059 18.8183332258 5.360000107199999 
Li 29.1225001059 18.8183332258 16.08 
Li 29.1225001059 18.8183332258 26.799999892799995 
Li 29.1225001059 29.571666774199997 5.360000107199999 
Li 29.1225001059 29.571666774199997 16.08 
Li 29.1225001059 29.571666774199997 26.799999892799995 
Li 7.9425 2.6883332257999997 0.0 
Li 7.9425 2.6883332257999997 10.719999892799999 
Li 7.9425 2.6883332257999997 21.4400001072 
Li 7.9425 13.4416667742 21.4400001072 
Li 7.9425 24.195 10.719999892799999 
Li 7.9425 24.195 21.4400001072 
Li 18.5324998941 2.6883332257999997 32.16 
Li 18.5324998941 2.6883332257999997 10.719999892799999 
Li 18.5324998941 13.4416667742 32.16 
Li 18.5324998941 13.4416667742 10.719999892799999 
Li 18.5324998941 13.4416667742 21.4400001072 
Li 18.5324998941 24.195 32.16 
Li 18.5324998941 24.195 21.4400001072 
Li 29.1225001059 2.6883332257999997 10.719999892799999 
Li 29.1225001059 2.6883332257999997 21.4400001072 
Li 29.1225001059 13.4416667742 32.16 
Li 29.1225001059 13.4416667742 10.719999892799999 
Li 29.1225001059 24.195 32.16 
Li 29.1225001059 24.195 10.719999892799999 
Li 29.1225001059 24.195 21.4400001072 
Li 2.6474998941 8.065 0.0 
Li 2.6474998941 8.065 21.4400001072 
Li 2.6474998941 18.8183332258 32.16 
Li 2.6474998941 18.8183332258 21.4400001072 
Li 2.6474998941 29.571666774199997 0.0 
Li 2.6474998941 29.571666774199997 10.719999892799999 
Li 13.2375001059 8.065 32.16 
Li 13.2375001059 8.065 21.4400001072 
Li 13.2375001059 18.8183332258 10.719999892799999 
Li 13.2375001059 18.8183332258 21.4400001072 
Li 13.2375001059 29.571666774199997 32.16 
Li 13.2375001059 29.571666774199997 10.719999892799999 
Li 13.2375001059 29.571666774199997 21.4400001072 
Li 23.8275 8.065 21.4400001072 
Li 23.8275 18.8183332258 32.16 
Li 23.8275 18.8183332258 10.719999892799999 
Li 23.8275 18.8183332258 21.4400001072 
Li 23.8275 29.571666774199997 32.16 
Li 23.8275 29.571666774199997 10.719999892799999 
Li 23.8275 29.571666774199997 21.4400001072 
Sc 5.2950001059 5.376666774199999 16.08 
Sc 5.2950001059 26.883333225799998 5.360000107199999 
Sc 15.885 5.376666774199999 5.360000107199999 
Sc 15.885 5.376666774199999 16.08 
Sc 15.885 16.13 5.360000107199999 
Sc 15.885 26.883333225799998 5.360000107199999 
Sc 15.885 26.883333225799998 16.08 
Sc 26.474999894099998 5.376666774199999 16.08 
Sc 26.474999894099998 16.13 16.08 
Sc 26.474999894099998 26.883333225799998 5.360000107199999 
Sc 0.0 0.0 5.360000107199999 
Sc 0.0 10.753333225799999 16.08 
Sc 10.5899998941 10.753333225799999 26.799999892799995 
Sc 21.1800001059 0.0 5.360000107199999 
Sc 21.1800001059 10.753333225799999 5.360000107199999 
Sc 21.1800001059 21.5066667742 16.08 
Sc 0.0 26.883333225799998 21.4400001072 
Sc 10.5899998941 16.13 10.719999892799999 
Sc 10.5899998941 16.13 21.4400001072 
Sc 10.5899998941 26.883333225799998 10.719999892799999 
Sc 21.1800001059 5.376666774199999 10.719999892799999 
Sc 5.2950001059 0.0 21.4400001072 
Sc 5.2950001059 10.753333225799999 21.4400001072 
Sc 5.2950001059 21.5066667742 0.0 
Sc 5.2950001059 21.5066667742 21.4400001072 
Sc 15.885 0.0 21.4400001072 
Sc 15.885 10.753333225799999 32.16 
Sc 26.474999894099998 0.0 32.16 
Sc 26.474999894099998 0.0 10.719999892799999 
Sc 26.474999894099998 10.753333225799999 32.16 
Sc 26.474999894099998 10.753333225799999 10.719999892799999 
Sc 26.474999894099998 10.753333225799999 21.4400001072 
Sc 5.2950001059 13.4416667742 2.6799998927999997 
Sc 5.2950001059 13.4416667742 13.400000107199999 
Sc 5.2950001059 24.195 2.6799998927999997 
Sc 5.2950001059 24.195 13.400000107199999 
Sc 5.2950001059 24.195 24.119999999999997 
Sc 15.885 2.6883332257999997 13.400000107199999 
Sc 15.885 2.6883332257999997 24.119999999999997 
Sc 15.885 13.4416667742 13.400000107199999 
Sc 15.885 24.195 2.6799998927999997 
Sc 15.885 24.195 13.400000107199999 
Sc 26.474999894099998 2.6883332257999997 24.119999999999997 
Sc 26.474999894099998 13.4416667742 2.6799998927999997 
Sc 26.474999894099998 13.4416667742 24.119999999999997 
Sc 26.474999894099998 24.195 2.6799998927999997 
Sc 26.474999894099998 24.195 24.119999999999997 
Sc 0.0 8.065 2.6799998927999997 
Sc 0.0 29.571666774199997 13.400000107199999 
Sc 0.0 29.571666774199997 24.119999999999997 
Sc 10.5899998941 8.065 24.119999999999997 
Sc 10.5899998941 18.8183332258 13.400000107199999 
Sc 10.5899998941 29.571666774199997 24.119999999999997 
Sc 21.1800001059 8.065 2.6799998927999997 
Sc 21.1800001059 8.065 24.119999999999997 
Sc 0.0 2.6883332257999997 8.04 
Sc 0.0 2.6883332257999997 18.759999892799996 
Sc 0.0 24.195 18.759999892799996 
Sc 0.0 24.195 29.4800001072 
Sc 10.5899998941 2.6883332257999997 8.04 
Sc 10.5899998941 13.4416667742 18.759999892799996 
Sc 21.1800001059 13.4416667742 8.04 
Sc 21.1800001059 13.4416667742 29.4800001072 
Sc 21.1800001059 24.195 29.4800001072 
Sc 5.2950001059 8.065 29.4800001072 
Sc 5.2950001059 18.8183332258 18.759999892799996 
Sc 15.885 8.065 8.04 
Sc 15.885 8.065 18.759999892799996 
Sc 15.885 18.8183332258 18.759999892799996 
Sc 26.474999894099998 18.8183332258 8.04 
Sc 26.474999894099998 29.571666774199997 8.04 
Sc 2.6474998941 5.376666774199999 13.400000107199999 
Sc 2.6474998941 5.376666774199999 24.119999999999997 
Sc 2.6474998941 26.883333225799998 2.6799998927999997 
Sc 2.6474998941 26.883333225799998 13.400000107199999 
Sc 2.6474998941 26.883333225799998 24.119999999999997 
Sc 13.2375001059 16.13 2.6799998927999997 
Sc 13.2375001059 16.13 13.400000107199999 
Sc 13.2375001059 26.883333225799998 2.6799998927999997 
Sc 13.2375001059 26.883333225799998 13.400000107199999 
Sc 13.2375001059 26.883333225799998 24.119999999999997 
Sc 23.8275 16.13 2.6799998927999997 
Sc 23.8275 16.13 13.400000107199999 
Sc 23.8275 26.883333225799998 2.6799998927999997 
Sc 23.8275 26.883333225799998 24.119999999999997 
Sc 7.9425 10.753333225799999 24.119999999999997 
Sc 18.5324998941 0.0 13.400000107199999 
Sc 18.5324998941 10.753333225799999 2.6799998927999997 
Sc 29.1225001059 0.0 13.400000107199999 
Sc 29.1225001059 10.753333225799999 2.6799998927999997 
Sc 29.1225001059 10.753333225799999 24.119999999999997 
Sc 7.9425 16.13 29.4800001072 
Sc 18.5324998941 5.376666774199999 8.04 
Sc 18.5324998941 16.13 29.4800001072 
Sc 18.5324998941 26.883333225799998 29.4800001072 
Sc 29.1225001059 5.376666774199999 18.759999892799996 
Sc 29.1225001059 5.376666774199999 29.4800001072 
Sc 29.1225001059 16.13 8.04 
Sc 29.1225001059 16.13 29.4800001072 
Sc 2.6474998941 21.5066667742 29.4800001072 
Sc 13.2375001059 0.0 8.04 
Sc 13.2375001059 0.0 18.759999892799996 
Sc 13.2375001059 21.5066667742 18.759999892799996 
Sc 23.8275 0.0 29.4800001072 
Sc 23.8275 21.5066667742 18.759999892799996 
Sc 23.8275 21.5066667742 29.4800001072 
Sc 2.6474998941 13.4416667742 26.799999892799995 
Sc 2.6474998941 24.195 26.799999892799995 
Sc 13.2375001059 2.6883332257999997 26.799999892799995 
Sc 13.2375001059 24.195 5.360000107199999 
Sc 23.8275 2.6883332257999997 5.360000107199999 
Sc 23.8275 2.6883332257999997 26.799999892799995 
Sc 23.8275 24.195 16.08 
Sc 7.9425 8.065 16.08 
Sc 7.9425 18.8183332258 16.08 
Sc 7.9425 29.571666774199997 5.360000107199999 
Sc 7.9425 29.571666774199997 26.799999892799995 
Sc 18.5324998941 8.065 16.08 
Sc 18.5324998941 18.8183332258 16.08 
Sc 29.1225001059 8.065 5.360000107199999 
Sc 29.1225001059 8.065 16.08 
Sc 7.9425 13.4416667742 32.16 
Sc 7.9425 13.4416667742 10.719999892799999 
Sc 7.9425 24.195 32.16 
Sc 18.5324998941 2.6883332257999997 21.4400001072 
Sc 18.5324998941 24.195 10.719999892799999 
Sc 29.1225001059 2.6883332257999997 32.16 
Sc 29.1225001059 13.4416667742 21.4400001072 
Sc 2.6474998941 8.065 10.719999892799999 
Sc 2.6474998941 18.8183332258 10.719999892799999 
Sc 2.6474998941 29.571666774199997 21.4400001072 
Sc 13.2375001059 8.065 10.719999892799999 
Sc 13.2375001059 18.8183332258 32.16 
Sc 23.8275 8.065 32.16 
Sc 23.8275 8.065 10.719999892799999 
Cl 7.9425 8.065 8.04 
Cl 7.9425 8.065 18.759999892799996 
Cl 7.9425 8.065 29.4800001072 
Cl 7.9425 18.8183332258 8.04 
Cl 7.9425 18.8183332258 18.759999892799996 
Cl 7.9425 18.8183332258 29.4800001072 
Cl 7.9425 29.571666774199997 8.04 
Cl 7.9425 29.571666774199997 18.759999892799996 
Cl 7.9425 29.571666774199997 29.4800001072 
Cl 18.5324998941 8.065 8.04 
Cl 18.5324998941 8.065 18.759999892799996 
Cl 18.5324998941 8.065 29.4800001072 
Cl 18.5324998941 18.8183332258 8.04 
Cl 18.5324998941 18.8183332258 18.759999892799996 
Cl 18.5324998941 18.8183332258 29.4800001072 
Cl 18.5324998941 29.571666774199997 8.04 
Cl 18.5324998941 29.571666774199997 18.759999892799996 
Cl 18.5324998941 29.571666774199997 29.4800001072 
Cl 29.1225001059 8.065 8.04 
Cl 29.1225001059 8.065 18.759999892799996 
Cl 29.1225001059 8.065 29.4800001072 
Cl 29.1225001059 18.8183332258 8.04 
Cl 29.1225001059 18.8183332258 18.759999892799996 
Cl 29.1225001059 18.8183332258 29.4800001072 
Cl 29.1225001059 29.571666774199997 8.04 
Cl 29.1225001059 29.571666774199997 18.759999892799996 
Cl 29.1225001059 29.571666774199997 29.4800001072 
Cl 2.6474998941 2.6883332257999997 8.04 
Cl 2.6474998941 2.6883332257999997 18.759999892799996 
Cl 2.6474998941 2.6883332257999997 29.4800001072 
Cl 2.6474998941 13.4416667742 8.04 
Cl 2.6474998941 13.4416667742 18.759999892799996 
Cl 2.6474998941 13.4416667742 29.4800001072 
Cl 2.6474998941 24.195 8.04 
Cl 2.6474998941 24.195 18.759999892799996 
Cl 2.6474998941 24.195 29.4800001072 
Cl 13.2375001059 2.6883332257999997 8.04 
Cl 13.2375001059 2.6883332257999997 18.759999892799996 
Cl 13.2375001059 2.6883332257999997 29.4800001072 
Cl 13.2375001059 13.4416667742 8.04 
Cl 13.2375001059 13.4416667742 18.759999892799996 
Cl 13.2375001059 13.4416667742 29.4800001072 
Cl 13.2375001059 24.195 8.04 
Cl 13.2375001059 24.195 18.759999892799996 
Cl 13.2375001059 24.195 29.4800001072 
Cl 23.8275 2.6883332257999997 8.04 
Cl 23.8275 2.6883332257999997 18.759999892799996 
Cl 23.8275 2.6883332257999997 29.4800001072 
Cl 23.8275 13.4416667742 8.04 
Cl 23.8275 13.4416667742 18.759999892799996 
Cl 23.8275 13.4416667742 29.4800001072 
Cl 23.8275 24.195 8.04 
Cl 23.8275 24.195 18.759999892799996 
Cl 23.8275 24.195 29.4800001072 
Cl 2.6474998941 8.065 2.6799998927999997 
Cl 2.6474998941 8.065 13.400000107199999 
Cl 2.6474998941 8.065 24.119999999999997 
Cl 2.6474998941 18.8183332258 2.6799998927999997 
Cl 2.6474998941 18.8183332258 13.400000107199999 
Cl 2.6474998941 18.8183332258 24.119999999999997 
Cl 2.6474998941 29.571666774199997 2.6799998927999997 
Cl 2.6474998941 29.571666774199997 13.400000107199999 
Cl 2.6474998941 29.571666774199997 24.119999999999997 
Cl 13.2375001059 8.065 2.6799998927999997 
Cl 13.2375001059 8.065 13.400000107199999 
Cl 13.2375001059 8.065 24.119999999999997 
Cl 13.2375001059 18.8183332258 2.6799998927999997 
Cl 13.2375001059 18.8183332258 13.400000107199999 
Cl 13.2375001059 18.8183332258 24.119999999999997 
Cl 13.2375001059 29.571666774199997 2.6799998927999997 
Cl 13.2375001059 29.571666774199997 13.400000107199999 
Cl 13.2375001059 29.571666774199997 24.119999999999997 
Cl 23.8275 8.065 2.6799998927999997 
Cl 23.8275 8.065 13.400000107199999 
Cl 23.8275 8.065 24.119999999999997 
Cl 23.8275 18.8183332258 2.6799998927999997 
Cl 23.8275 18.8183332258 13.400000107199999 
Cl 23.8275 18.8183332258 24.119999999999997 
Cl 23.8275 29.571666774199997 2.6799998927999997 