ITEM: TIMESTEP
0
ITEM: NUMBER OF ATOMS
1458
ITEM: BOX BOUNDS xy xz yz pp pp pp
-1.0681139225750498e+00 3.1768555640020178e+01 -3.4462023997898279e-02
-1.4208058931420289e+00 3.2264828496812072e+01 -1.0598191856576492e-01
-1.2956563009725393e+00 3.2156963481401696e+01 -9.5900442286863355e-02
ITEM: ATOMS element x y z
  Li  Li0  1  0.12417960  0.12409496  0.29436875  1.0
  Li  Li1  1  0.12417960  0.12409496  0.62770209  1.0
  Li  Li2  1  0.12417960  0.12409496  0.96103542  1.0
  Li  Li3  1  0.12417960  0.45742829  0.29436875  1.0
  Li  Li4  1  0.12417960  0.45742829  0.62770209  1.0
  Li  Li5  1  0.12417960  0.45742829  0.96103542  1.0
  Li  Li6  1  0.12417960  0.79076162  0.29436875  1.0
  Li  Li7  1  0.12417960  0.79076162  0.62770209  1.0
  Li  Li8  1  0.12417960  0.79076162  0.96103542  1.0
  Li  Li9  1  0.45751293  0.12409496  0.29436875  1.0
  Li  Li10  1  0.45751293  0.12409496  0.62770209  1.0
  Li  Li11  1  0.45751293  0.12409496  0.96103542  1.0
  Li  Li12  1  0.45751293  0.45742829  0.29436875  1.0
  Li  Li13  1  0.45751293  0.45742829  0.62770209  1.0
  Li  Li14  1  0.45751293  0.45742829  0.96103542  1.0
  Li  Li15  1  0.45751293  0.79076162  0.29436875  1.0
  Li  Li16  1  0.45751293  0.79076162  0.62770209  1.0
  Li  Li17  1  0.45751293  0.79076162  0.96103542  1.0
  Li  Li18  1  0.79084626  0.12409496  0.29436875  1.0
  Li  Li19  1  0.79084626  0.12409496  0.62770209  1.0
  Li  Li20  1  0.79084626  0.12409496  0.96103542  1.0
  Li  Li21  1  0.79084626  0.45742829  0.29436875  1.0
  Li  Li22  1  0.79084626  0.45742829  0.62770209  1.0
  Li  Li23  1  0.79084626  0.45742829  0.96103542  1.0
  Li  Li24  1  0.79084626  0.79076162  0.29436875  1.0
  Li  Li25  1  0.79084626  0.79076162  0.62770209  1.0
  Li  Li26  1  0.79084626  0.79076162  0.96103542  1.0
  Li  Li27  1  0.16864324  0.25018163  0.08378941  1.0
  Li  Li28  1  0.16864324  0.25018163  0.41712275  1.0
  Li  Li29  1  0.16864324  0.25018163  0.75045608  1.0
  Li  Li30  1  0.16864324  0.58351496  0.08378941  1.0
  Li  Li31  1  0.16864324  0.58351496  0.41712275  1.0
  Li  Li32  1  0.16864324  0.58351496  0.75045608  1.0
  Li  Li33  1  0.16864324  0.91684829  0.08378941  1.0
  Li  Li34  1  0.16864324  0.91684829  0.41712275  1.0
  Li  Li35  1  0.16864324  0.91684829  0.75045608  1.0
  Li  Li36  1  0.50197657  0.25018163  0.08378941  1.0
  Li  Li37  1  0.50197657  0.25018163  0.41712275  1.0
  Li  Li38  1  0.50197657  0.25018163  0.75045608  1.0
  Li  Li39  1  0.50197657  0.58351496  0.08378941  1.0
  Li  Li40  1  0.50197657  0.58351496  0.41712275  1.0
  Li  Li41  1  0.50197657  0.58351496  0.75045608  1.0
  Li  Li42  1  0.50197657  0.91684829  0.08378941  1.0
  Li  Li43  1  0.50197657  0.91684829  0.41712275  1.0
  Li  Li44  1  0.50197657  0.91684829  0.75045608  1.0
  Li  Li45  1  0.83530990  0.25018163  0.08378941  1.0
  Li  Li46  1  0.83530990  0.25018163  0.41712275  1.0
  Li  Li47  1  0.83530990  0.25018163  0.75045608  1.0
  Li  Li48  1  0.83530990  0.58351496  0.08378941  1.0
  Li  Li49  1  0.83530990  0.58351496  0.41712275  1.0
  Li  Li50  1  0.83530990  0.58351496  0.75045608  1.0
  Li  Li51  1  0.83530990  0.91684829  0.08378941  1.0
  Li  Li52  1  0.83530990  0.91684829  0.41712275  1.0
  Li  Li53  1  0.83530990  0.91684829  0.75045608  1.0
  Li  Li54  1  0.08687496  0.24644746  0.17224738  1.0
  Li  Li55  1  0.08687496  0.24644746  0.50558071  1.0
  Li  Li56  1  0.08687496  0.24644746  0.83891405  1.0
  Li  Li57  1  0.08687496  0.57978080  0.17224738  1.0
  Li  Li58  1  0.08687496  0.57978080  0.50558071  1.0
  Li  Li59  1  0.08687496  0.57978080  0.83891405  1.0
  Li  Li60  1  0.08687496  0.91311413  0.17224738  1.0
  Li  Li61  1  0.08687496  0.91311413  0.50558071  1.0
  Li  Li62  1  0.08687496  0.91311413  0.83891405  1.0
  Li  Li63  1  0.42020829  0.24644746  0.17224738  1.0
  Li  Li64  1  0.42020829  0.24644746  0.50558071  1.0
  Li  Li65  1  0.42020829  0.24644746  0.83891405  1.0
  Li  Li66  1  0.42020829  0.57978080  0.17224738  1.0
  Li  Li67  1  0.42020829  0.57978080  0.50558071  1.0
  Li  Li68  1  0.42020829  0.57978080  0.83891405  1.0
  Li  Li69  1  0.42020829  0.91311413  0.17224738  1.0
  Li  Li70  1  0.42020829  0.91311413  0.50558071  1.0
  Li  Li71  1  0.42020829  0.91311413  0.83891405  1.0
  Li  Li72  1  0.75354163  0.24644746  0.17224738  1.0
  Li  Li73  1  0.75354163  0.24644746  0.50558071  1.0
  Li  Li74  1  0.75354163  0.24644746  0.83891405  1.0
  Li  Li75  1  0.75354163  0.57978080  0.17224738  1.0
  Li  Li76  1  0.75354163  0.57978080  0.50558071  1.0
  Li  Li77  1  0.75354163  0.57978080  0.83891405  1.0
  Li  Li78  1  0.75354163  0.91311413  0.17224738  1.0
  Li  Li79  1  0.75354163  0.91311413  0.50558071  1.0
  Li  Li80  1  0.75354163  0.91311413  0.83891405  1.0
  Li  Li81  1  0.25025859  0.16497985  0.08358977  1.0
  Li  Li82  1  0.25025859  0.16497985  0.41692310  1.0
  Li  Li83  1  0.25025859  0.16497985  0.75025643  1.0
  Li  Li84  1  0.25025859  0.49831318  0.08358977  1.0
  Li  Li85  1  0.25025859  0.49831318  0.41692310  1.0
  Li  Li86  1  0.25025859  0.49831318  0.75025643  1.0
  Li  Li87  1  0.25025859  0.83164652  0.08358977  1.0
  Li  Li88  1  0.25025859  0.83164652  0.41692310  1.0
  Li  Li89  1  0.25025859  0.83164652  0.75025643  1.0
  Li  Li90  1  0.58359192  0.16497985  0.08358977  1.0
  Li  Li91  1  0.58359192  0.16497985  0.41692310  1.0
  Li  Li92  1  0.58359192  0.16497985  0.75025643  1.0
  Li  Li93  1  0.58359192  0.49831318  0.08358977  1.0
  Li  Li94  1  0.58359192  0.49831318  0.41692310  1.0
  Li  Li95  1  0.58359192  0.49831318  0.75025643  1.0
  Li  Li96  1  0.58359192  0.83164652  0.08358977  1.0
  Li  Li97  1  0.58359192  0.83164652  0.41692310  1.0
  Li  Li98  1  0.58359192  0.83164652  0.75025643  1.0
  Li  Li99  1  0.91692525  0.16497985  0.08358977  1.0
  Li  Li100  1  0.91692525  0.16497985  0.41692310  1.0
  Li  Li101  1  0.91692525  0.16497985  0.75025643  1.0
  Li  Li102  1  0.91692525  0.49831318  0.08358977  1.0
  Li  Li103  1  0.91692525  0.49831318  0.41692310  1.0
  Li  Li104  1  0.91692525  0.49831318  0.75025643  1.0
  Li  Li105  1  0.91692525  0.83164652  0.08358977  1.0
  Li  Li106  1  0.91692525  0.83164652  0.41692310  1.0
  Li  Li107  1  0.91692525  0.83164652  0.75025643  1.0
  Li  Li108  1  0.16862095  0.00503157  0.16860455  1.0
  Li  Li109  1  0.16862095  0.00503157  0.50193788  1.0
  Li  Li110  1  0.16862095  0.00503157  0.83527121  1.0
  Li  Li111  1  0.16862095  0.33836490  0.16860455  1.0
  Li  Li112  1  0.16862095  0.33836490  0.50193788  1.0
  Li  Li113  1  0.16862095  0.33836490  0.83527121  1.0
  Li  Li114  1  0.16862095  0.67169823  0.16860455  1.0
  Li  Li115  1  0.16862095  0.67169823  0.50193788  1.0
  Li  Li116  1  0.16862095  0.67169823  0.83527121  1.0
  Li  Li117  1  0.50195428  0.00503157  0.16860455  1.0
  Li  Li118  1  0.50195428  0.00503157  0.50193788  1.0
  Li  Li119  1  0.50195428  0.00503157  0.83527121  1.0
  Li  Li120  1  0.50195428  0.33836490  0.16860455  1.0
  Li  Li121  1  0.50195428  0.33836490  0.50193788  1.0
  Li  Li122  1  0.50195428  0.33836490  0.83527121  1.0
  Li  Li123  1  0.50195428  0.67169823  0.16860455  1.0
  Li  Li124  1  0.50195428  0.67169823  0.50193788  1.0
  Li  Li125  1  0.50195428  0.67169823  0.83527121  1.0
  Li  Li126  1  0.83528761  0.00503157  0.16860455  1.0
  Li  Li127  1  0.83528761  0.00503157  0.50193788  1.0
  Li  Li128  1  0.83528761  0.00503157  0.83527121  1.0
  Li  Li129  1  0.83528761  0.33836490  0.16860455  1.0
  Li  Li130  1  0.83528761  0.33836490  0.50193788  1.0
  Li  Li131  1  0.83528761  0.33836490  0.83527121  1.0
  Li  Li132  1  0.83528761  0.67169823  0.16860455  1.0
  Li  Li133  1  0.83528761  0.67169823  0.50193788  1.0
  Li  Li134  1  0.83528761  0.67169823  0.83527121  1.0
  Li  Li135  1  0.25746565  0.25730389  0.00199136  1.0
  Li  Li136  1  0.25746565  0.25730389  0.33532469  1.0
  Li  Li137  1  0.25746565  0.25730389  0.66865803  1.0
  Li  Li138  1  0.25746565  0.59063723  0.00199136  1.0
  Li  Li139  1  0.25746565  0.59063723  0.33532469  1.0
  Li  Li140  1  0.25746565  0.59063723  0.66865803  1.0
  Li  Li141  1  0.25746565  0.92397056  0.00199136  1.0
  Li  Li142  1  0.25746565  0.92397056  0.33532469  1.0
  Li  Li143  1  0.25746565  0.92397056  0.66865803  1.0
  Li  Li144  1  0.59079899  0.25730389  0.00199136  1.0
  Li  Li145  1  0.59079899  0.25730389  0.33532469  1.0
  Li  Li146  1  0.59079899  0.25730389  0.66865803  1.0
  Li  Li147  1  0.59079899  0.59063723  0.00199136  1.0
  Li  Li148  1  0.59079899  0.59063723  0.33532469  1.0
  Li  Li149  1  0.59079899  0.59063723  0.66865803  1.0
  Li  Li150  1  0.59079899  0.92397056  0.00199136  1.0
  Li  Li151  1  0.59079899  0.92397056  0.33532469  1.0
  Li  Li152  1  0.59079899  0.92397056  0.66865803  1.0
  Li  Li153  1  0.92413232  0.25730389  0.00199136  1.0
  Li  Li154  1  0.92413232  0.25730389  0.33532469  1.0
  Li  Li155  1  0.92413232  0.25730389  0.66865803  1.0
  Li  Li156  1  0.92413232  0.59063723  0.00199136  1.0
  Li  Li157  1  0.92413232  0.59063723  0.33532469  1.0
  Li  Li158  1  0.92413232  0.59063723  0.66865803  1.0
  Li  Li159  1  0.92413232  0.92397056  0.00199136  1.0
  Li  Li160  1  0.92413232  0.92397056  0.33532469  1.0
  Li  Li161  1  0.92413232  0.92397056  0.66865803  1.0
  Li  Li162  1  0.16825872  0.15755648  0.16841611  1.0
  Li  Li163  1  0.16825872  0.15755648  0.50174944  1.0
  Li  Li164  1  0.16825872  0.15755648  0.83508277  1.0
  Li  Li165  1  0.16825872  0.49088981  0.16841611  1.0
  Li  Li166  1  0.16825872  0.49088981  0.50174944  1.0
  Li  Li167  1  0.16825872  0.49088981  0.83508277  1.0
  Li  Li168  1  0.16825872  0.82422315  0.16841611  1.0
  Li  Li169  1  0.16825872  0.82422315  0.50174944  1.0
  Li  Li170  1  0.16825872  0.82422315  0.83508277  1.0
  Li  Li171  1  0.50159205  0.15755648  0.16841611  1.0
  Li  Li172  1  0.50159205  0.15755648  0.50174944  1.0
  Li  Li173  1  0.50159205  0.15755648  0.83508277  1.0
  Li  Li174  1  0.50159205  0.49088981  0.16841611  1.0
  Li  Li175  1  0.50159205  0.49088981  0.50174944  1.0
  Li  Li176  1  0.50159205  0.49088981  0.83508277  1.0
  Li  Li177  1  0.50159205  0.82422315  0.16841611  1.0
  Li  Li178  1  0.50159205  0.82422315  0.50174944  1.0
  Li  Li179  1  0.50159205  0.82422315  0.83508277  1.0
  Li  Li180  1  0.83492538  0.15755648  0.16841611  1.0
  Li  Li181  1  0.83492538  0.15755648  0.50174944  1.0
  Li  Li182  1  0.83492538  0.15755648  0.83508277  1.0
  Li  Li183  1  0.83492538  0.49088981  0.16841611  1.0
  Li  Li184  1  0.83492538  0.49088981  0.50174944  1.0
  Li  Li185  1  0.83492538  0.49088981  0.83508277  1.0
  Li  Li186  1  0.83492538  0.82422315  0.16841611  1.0
  Li  Li187  1  0.83492538  0.82422315  0.50174944  1.0
  Li  Li188  1  0.83492538  0.82422315  0.83508277  1.0
  Li  Li189  1  0.16469277  0.25014307  0.24983057  1.0
  Li  Li190  1  0.16469277  0.25014307  0.58316391  1.0
  Li  Li191  1  0.16469277  0.25014307  0.91649724  1.0
  Li  Li192  1  0.16469277  0.58347641  0.24983057  1.0
  Li  Li193  1  0.16469277  0.58347641  0.58316391  1.0
  Li  Li194  1  0.16469277  0.58347641  0.91649724  1.0
  Li  Li195  1  0.16469277  0.91680974  0.24983057  1.0
  Li  Li196  1  0.16469277  0.91680974  0.58316391  1.0
  Li  Li197  1  0.16469277  0.91680974  0.91649724  1.0
  Li  Li198  1  0.49802611  0.25014307  0.24983057  1.0
  Li  Li199  1  0.49802611  0.25014307  0.58316391  1.0
  Li  Li200  1  0.49802611  0.25014307  0.91649724  1.0
  Li  Li201  1  0.49802611  0.58347641  0.24983057  1.0
  Li  Li202  1  0.49802611  0.58347641  0.58316391  1.0
  Li  Li203  1  0.49802611  0.58347641  0.91649724  1.0
  Li  Li204  1  0.49802611  0.91680974  0.24983057  1.0
  Li  Li205  1  0.49802611  0.91680974  0.58316391  1.0
  Li  Li206  1  0.49802611  0.91680974  0.91649724  1.0
  Li  Li207  1  0.83135944  0.25014307  0.24983057  1.0
  Li  Li208  1  0.83135944  0.25014307  0.58316391  1.0
  Li  Li209  1  0.83135944  0.25014307  0.91649724  1.0
  Li  Li210  1  0.83135944  0.58347641  0.24983057  1.0
  Li  Li211  1  0.83135944  0.58347641  0.58316391  1.0
  Li  Li212  1  0.83135944  0.58347641  0.91649724  1.0
  Li  Li213  1  0.83135944  0.91680974  0.24983057  1.0
  Li  Li214  1  0.83135944  0.91680974  0.58316391  1.0
  Li  Li215  1  0.83135944  0.91680974  0.91649724  1.0
  Li  Li216  1  0.07929476  0.25364359  0.32777717  1.0
  Li  Li217  1  0.07929476  0.25364359  0.66111050  1.0
  Li  Li218  1  0.07929476  0.25364359  0.99444383  1.0
  Li  Li219  1  0.07929476  0.58697692  0.32777717  1.0
  Li  Li220  1  0.07929476  0.58697692  0.66111050  1.0
  Li  Li221  1  0.07929476  0.58697692  0.99444383  1.0
  Li  Li222  1  0.07929476  0.92031025  0.32777717  1.0
  Li  Li223  1  0.07929476  0.92031025  0.66111050  1.0
  Li  Li224  1  0.07929476  0.92031025  0.99444383  1.0
  Li  Li225  1  0.41262809  0.25364359  0.32777717  1.0
  Li  Li226  1  0.41262809  0.25364359  0.66111050  1.0
  Li  Li227  1  0.41262809  0.25364359  0.99444383  1.0
  Li  Li228  1  0.41262809  0.58697692  0.32777717  1.0
  Li  Li229  1  0.41262809  0.58697692  0.66111050  1.0
  Li  Li230  1  0.41262809  0.58697692  0.99444383  1.0
  Li  Li231  1  0.41262809  0.92031025  0.32777717  1.0
  Li  Li232  1  0.41262809  0.92031025  0.66111050  1.0
  Li  Li233  1  0.41262809  0.92031025  0.99444383  1.0
  Li  Li234  1  0.74596142  0.25364359  0.32777717  1.0
  Li  Li235  1  0.74596142  0.25364359  0.66111050  1.0
  Li  Li236  1  0.74596142  0.25364359  0.99444383  1.0
  Li  Li237  1  0.74596142  0.58697692  0.32777717  1.0
  Li  Li238  1  0.74596142  0.58697692  0.66111050  1.0
  Li  Li239  1  0.74596142  0.58697692  0.99444383  1.0
  Li  Li240  1  0.74596142  0.92031025  0.32777717  1.0
  Li  Li241  1  0.74596142  0.92031025  0.66111050  1.0
  Li  Li242  1  0.74596142  0.92031025  0.99444383  1.0
  Li  Li243  1  0.08692634  0.08332665  0.16473566  1.0
  Li  Li244  1  0.08692634  0.08332665  0.49806899  1.0
  Li  Li245  1  0.08692634  0.08332665  0.83140232  1.0
  Li  Li246  1  0.08692634  0.41665998  0.16473566  1.0
  Li  Li247  1  0.08692634  0.41665998  0.49806899  1.0
  Li  Li248  1  0.08692634  0.41665998  0.83140232  1.0
  Li  Li249  1  0.08692634  0.74999331  0.16473566  1.0
  Li  Li250  1  0.08692634  0.74999331  0.49806899  1.0
  Li  Li251  1  0.08692634  0.74999331  0.83140232  1.0
  Li  Li252  1  0.42025968  0.08332665  0.16473566  1.0
  Li  Li253  1  0.42025968  0.08332665  0.49806899  1.0
  Li  Li254  1  0.42025968  0.08332665  0.83140232  1.0
  Li  Li255  1  0.42025968  0.41665998  0.16473566  1.0
  Li  Li256  1  0.42025968  0.41665998  0.49806899  1.0
  Li  Li257  1  0.42025968  0.41665998  0.83140232  1.0
  Li  Li258  1  0.42025968  0.74999331  0.16473566  1.0
  Li  Li259  1  0.42025968  0.74999331  0.49806899  1.0
  Li  Li260  1  0.42025968  0.74999331  0.83140232  1.0
  Li  Li261  1  0.75359301  0.08332665  0.16473566  1.0
  Li  Li262  1  0.75359301  0.08332665  0.49806899  1.0
  Li  Li263  1  0.75359301  0.08332665  0.83140232  1.0
  Li  Li264  1  0.75359301  0.41665998  0.16473566  1.0
  Li  Li265  1  0.75359301  0.41665998  0.49806899  1.0
  Li  Li266  1  0.75359301  0.41665998  0.83140232  1.0
  Li  Li267  1  0.75359301  0.74999331  0.16473566  1.0
  Li  Li268  1  0.75359301  0.74999331  0.49806899  1.0
  Li  Li269  1  0.75359301  0.74999331  0.83140232  1.0
  Li  Li270  1  0.25363109  0.08664892  0.00550469  1.0
  Li  Li271  1  0.25363109  0.08664892  0.33883802  1.0
  Li  Li272  1  0.25363109  0.08664892  0.67217135  1.0
  Li  Li273  1  0.25363109  0.41998225  0.00550469  1.0
  Li  Li274  1  0.25363109  0.41998225  0.33883802  1.0
  Li  Li275  1  0.25363109  0.41998225  0.67217135  1.0
  Li  Li276  1  0.25363109  0.75331559  0.00550469  1.0
  Li  Li277  1  0.25363109  0.75331559  0.33883802  1.0
  Li  Li278  1  0.25363109  0.75331559  0.67217135  1.0
  Li  Li279  1  0.58696443  0.08664892  0.00550469  1.0
  Li  Li280  1  0.58696443  0.08664892  0.33883802  1.0
  Li  Li281  1  0.58696443  0.08664892  0.67217135  1.0
  Li  Li282  1  0.58696443  0.41998225  0.00550469  1.0
  Li  Li283  1  0.58696443  0.41998225  0.33883802  1.0
  Li  Li284  1  0.58696443  0.41998225  0.67217135  1.0
  Li  Li285  1  0.58696443  0.75331559  0.00550469  1.0
  Li  Li286  1  0.58696443  0.75331559  0.33883802  1.0
  Li  Li287  1  0.58696443  0.75331559  0.67217135  1.0
  Li  Li288  1  0.92029776  0.08664892  0.00550469  1.0
  Li  Li289  1  0.92029776  0.08664892  0.33883802  1.0
  Li  Li290  1  0.92029776  0.08664892  0.67217135  1.0
  Li  Li291  1  0.92029776  0.41998225  0.00550469  1.0
  Li  Li292  1  0.92029776  0.41998225  0.33883802  1.0
  Li  Li293  1  0.92029776  0.41998225  0.67217135  1.0
  Li  Li294  1  0.92029776  0.75331559  0.00550469  1.0
  Li  Li295  1  0.92029776  0.75331559  0.33883802  1.0
  Li  Li296  1  0.92029776  0.75331559  0.67217135  1.0
  Li  Li297  1  0.16866082  0.08336685  0.08713773  1.0
  Li  Li298  1  0.16866082  0.08336685  0.42047107  1.0
  Li  Li299  1  0.16866082  0.08336685  0.75380440  1.0
  Li  Li300  1  0.16866082  0.41670019  0.08713773  1.0
  Li  Li301  1  0.16866082  0.41670019  0.42047107  1.0
  Li  Li302  1  0.16866082  0.41670019  0.75380440  1.0
  Li  Li303  1  0.16866082  0.75003352  0.08713773  1.0
  Li  Li304  1  0.16866082  0.75003352  0.42047107  1.0
  Li  Li305  1  0.16866082  0.75003352  0.75380440  1.0
  Li  Li306  1  0.50199415  0.08336685  0.08713773  1.0
  Li  Li307  1  0.50199415  0.08336685  0.42047107  1.0
  Li  Li308  1  0.50199415  0.08336685  0.75380440  1.0
  Li  Li309  1  0.50199415  0.41670019  0.08713773  1.0
  Li  Li310  1  0.50199415  0.41670019  0.42047107  1.0
  Li  Li311  1  0.50199415  0.41670019  0.75380440  1.0
  Li  Li312  1  0.50199415  0.75003352  0.08713773  1.0
  Li  Li313  1  0.50199415  0.75003352  0.42047107  1.0
  Li  Li314  1  0.50199415  0.75003352  0.75380440  1.0
  Li  Li315  1  0.83532748  0.08336685  0.08713773  1.0
  Li  Li316  1  0.83532748  0.08336685  0.42047107  1.0
  Li  Li317  1  0.83532748  0.08336685  0.75380440  1.0
  Li  Li318  1  0.83532748  0.41670019  0.08713773  1.0
  Li  Li319  1  0.83532748  0.41670019  0.42047107  1.0
  Li  Li320  1  0.83532748  0.41670019  0.75380440  1.0
  Li  Li321  1  0.83532748  0.75003352  0.08713773  1.0
  Li  Li322  1  0.83532748  0.75003352  0.42047107  1.0
  Li  Li323  1  0.83532748  0.75003352  0.75380440  1.0
  Li  Li324  1  0.33250804  0.25182516  0.08093410  1.0
  Li  Li325  1  0.33250804  0.25182516  0.41426743  1.0
  Li  Li326  1  0.33250804  0.25182516  0.74760076  1.0
  Li  Li327  1  0.33250804  0.58515849  0.08093410  1.0
  Li  Li328  1  0.33250804  0.58515849  0.41426743  1.0
  Li  Li329  1  0.33250804  0.58515849  0.74760076  1.0
  Li  Li330  1  0.33250804  0.91849183  0.08093410  1.0
  Li  Li331  1  0.33250804  0.91849183  0.41426743  1.0
  Li  Li332  1  0.33250804  0.91849183  0.74760076  1.0
  Li  Li333  1  0.66584137  0.25182516  0.08093410  1.0
  Li  Li334  1  0.66584137  0.25182516  0.41426743  1.0
  Li  Li335  1  0.66584137  0.25182516  0.74760076  1.0
  Li  Li336  1  0.66584137  0.58515849  0.08093410  1.0
  Li  Li337  1  0.66584137  0.58515849  0.41426743  1.0
  Li  Li338  1  0.66584137  0.58515849  0.74760076  1.0
  Li  Li339  1  0.66584137  0.91849183  0.08093410  1.0
  Li  Li340  1  0.66584137  0.91849183  0.41426743  1.0
  Li  Li341  1  0.66584137  0.91849183  0.74760076  1.0
  Li  Li342  1  0.99917471  0.25182516  0.08093410  1.0
  Li  Li343  1  0.99917471  0.25182516  0.41426743  1.0
  Li  Li344  1  0.99917471  0.25182516  0.74760076  1.0
  Li  Li345  1  0.99917471  0.58515849  0.08093410  1.0
  Li  Li346  1  0.99917471  0.58515849  0.41426743  1.0
  Li  Li347  1  0.99917471  0.58515849  0.74760076  1.0
  Li  Li348  1  0.99917471  0.91849183  0.08093410  1.0
  Li  Li349  1  0.99917471  0.91849183  0.41426743  1.0
  Li  Li350  1  0.99917471  0.91849183  0.74760076  1.0
  Li  Li351  1  0.24984621  0.25015820  0.16817882  1.0
  Li  Li352  1  0.24984621  0.25015820  0.50151215  1.0
  Li  Li353  1  0.24984621  0.25015820  0.83484548  1.0
  Li  Li354  1  0.24984621  0.58349153  0.16817882  1.0
  Li  Li355  1  0.24984621  0.58349153  0.50151215  1.0
  Li  Li356  1  0.24984621  0.58349153  0.83484548  1.0
  Li  Li357  1  0.24984621  0.91682487  0.16817882  1.0
  Li  Li358  1  0.24984621  0.91682487  0.50151215  1.0
  Li  Li359  1  0.24984621  0.91682487  0.83484548  1.0
  Li  Li360  1  0.58317955  0.25015820  0.16817882  1.0
  Li  Li361  1  0.58317955  0.25015820  0.50151215  1.0
  Li  Li362  1  0.58317955  0.25015820  0.83484548  1.0
  Li  Li363  1  0.58317955  0.58349153  0.16817882  1.0
  Li  Li364  1  0.58317955  0.58349153  0.50151215  1.0
  Li  Li365  1  0.58317955  0.58349153  0.83484548  1.0
  Li  Li366  1  0.58317955  0.91682487  0.16817882  1.0
  Li  Li367  1  0.58317955  0.91682487  0.50151215  1.0
  Li  Li368  1  0.58317955  0.91682487  0.83484548  1.0
  Li  Li369  1  0.91651288  0.25015820  0.16817882  1.0
  Li  Li370  1  0.91651288  0.25015820  0.50151215  1.0
  Li  Li371  1  0.91651288  0.25015820  0.83484548  1.0
  Li  Li372  1  0.91651288  0.58349153  0.16817882  1.0
  Li  Li373  1  0.91651288  0.58349153  0.50151215  1.0
  Li  Li374  1  0.91651288  0.58349153  0.83484548  1.0
  Li  Li375  1  0.91651288  0.91682487  0.16817882  1.0
  Li  Li376  1  0.91651288  0.91682487  0.50151215  1.0
  Li  Li377  1  0.91651288  0.91682487  0.83484548  1.0
  Li  Li378  1  0.08348191  0.32778931  0.25033079  1.0
  Li  Li379  1  0.08348191  0.32778931  0.58366412  1.0
  Li  Li380  1  0.08348191  0.32778931  0.91699746  1.0
  Li  Li381  1  0.08348191  0.66112264  0.25033079  1.0
  Li  Li382  1  0.08348191  0.66112264  0.58366412  1.0
  Li  Li383  1  0.08348191  0.66112264  0.91699746  1.0
  Li  Li384  1  0.08348191  0.99445597  0.25033079  1.0
  Li  Li385  1  0.08348191  0.99445597  0.58366412  1.0
  Li  Li386  1  0.08348191  0.99445597  0.91699746  1.0
  Li  Li387  1  0.41681524  0.32778931  0.25033079  1.0
  Li  Li388  1  0.41681524  0.32778931  0.58366412  1.0
  Li  Li389  1  0.41681524  0.32778931  0.91699746  1.0
  Li  Li390  1  0.41681524  0.66112264  0.25033079  1.0
  Li  Li391  1  0.41681524  0.66112264  0.58366412  1.0
  Li  Li392  1  0.41681524  0.66112264  0.91699746  1.0
  Li  Li393  1  0.41681524  0.99445597  0.25033079  1.0
  Li  Li394  1  0.41681524  0.99445597  0.58366412  1.0
  Li  Li395  1  0.41681524  0.99445597  0.91699746  1.0
  Li  Li396  1  0.75014857  0.32778931  0.25033079  1.0
  Li  Li397  1  0.75014857  0.32778931  0.58366412  1.0
  Li  Li398  1  0.75014857  0.32778931  0.91699746  1.0
  Li  Li399  1  0.75014857  0.66112264  0.25033079  1.0
  Li  Li400  1  0.75014857  0.66112264  0.58366412  1.0
  Li  Li401  1  0.75014857  0.66112264  0.91699746  1.0
  Li  Li402  1  0.75014857  0.99445597  0.25033079  1.0
  Li  Li403  1  0.75014857  0.99445597  0.58366412  1.0
  Li  Li404  1  0.75014857  0.99445597  0.91699746  1.0
  Li  Li405  1  0.25293252  0.01157388  0.08343579  1.0
  Li  Li406  1  0.25293252  0.01157388  0.41676912  1.0
  Li  Li407  1  0.25293252  0.01157388  0.75010245  1.0
  Li  Li408  1  0.25293252  0.34490722  0.08343579  1.0
  Li  Li409  1  0.25293252  0.34490722  0.41676912  1.0
  Li  Li410  1  0.25293252  0.34490722  0.75010245  1.0
  Li  Li411  1  0.25293252  0.67824055  0.08343579  1.0
  Li  Li412  1  0.25293252  0.67824055  0.41676912  1.0
  Li  Li413  1  0.25293252  0.67824055  0.75010245  1.0
  Li  Li414  1  0.58626585  0.01157388  0.08343579  1.0
  Li  Li415  1  0.58626585  0.01157388  0.41676912  1.0
  Li  Li416  1  0.58626585  0.01157388  0.75010245  1.0
  Li  Li417  1  0.58626585  0.34490722  0.08343579  1.0
  Li  Li418  1  0.58626585  0.34490722  0.41676912  1.0
  Li  Li419  1  0.58626585  0.34490722  0.75010245  1.0
  Li  Li420  1  0.58626585  0.67824055  0.08343579  1.0
  Li  Li421  1  0.58626585  0.67824055  0.41676912  1.0
  Li  Li422  1  0.58626585  0.67824055  0.75010245  1.0
  Li  Li423  1  0.91959918  0.01157388  0.08343579  1.0
  Li  Li424  1  0.91959918  0.01157388  0.41676912  1.0
  Li  Li425  1  0.91959918  0.01157388  0.75010245  1.0
  Li  Li426  1  0.91959918  0.34490722  0.08343579  1.0
  Li  Li427  1  0.91959918  0.34490722  0.41676912  1.0
  Li  Li428  1  0.91959918  0.34490722  0.75010245  1.0
  Li  Li429  1  0.91959918  0.67824055  0.08343579  1.0
  Li  Li430  1  0.91959918  0.67824055  0.41676912  1.0
  Li  Li431  1  0.91959918  0.67824055  0.75010245  1.0
  Li  Li432  1  0.00186297  0.17212625  0.00184683  1.0
  Li  Li433  1  0.00186297  0.17212625  0.33518016  1.0
  Li  Li434  1  0.00186297  0.17212625  0.66851350  1.0
  Li  Li435  1  0.00186297  0.50545959  0.00184683  1.0
  Li  Li436  1  0.00186297  0.50545959  0.33518016  1.0
  Li  Li437  1  0.00186297  0.50545959  0.66851350  1.0
  Li  Li438  1  0.00186297  0.83879292  0.00184683  1.0
  Li  Li439  1  0.00186297  0.83879292  0.33518016  1.0
  Li  Li440  1  0.00186297  0.83879292  0.66851350  1.0
  Li  Li441  1  0.33519630  0.17212625  0.00184683  1.0
  Li  Li442  1  0.33519630  0.17212625  0.33518016  1.0
  Li  Li443  1  0.33519630  0.17212625  0.66851350  1.0
  Li  Li444  1  0.33519630  0.50545959  0.00184683  1.0
  Li  Li445  1  0.33519630  0.50545959  0.33518016  1.0
  Li  Li446  1  0.33519630  0.50545959  0.66851350  1.0
  Li  Li447  1  0.33519630  0.83879292  0.00184683  1.0
  Li  Li448  1  0.33519630  0.83879292  0.33518016  1.0
  Li  Li449  1  0.33519630  0.83879292  0.66851350  1.0
  Li  Li450  1  0.66852963  0.17212625  0.00184683  1.0
  Li  Li451  1  0.66852963  0.17212625  0.33518016  1.0
  Li  Li452  1  0.66852963  0.17212625  0.66851350  1.0
  Li  Li453  1  0.66852963  0.50545959  0.00184683  1.0
  Li  Li454  1  0.66852963  0.50545959  0.33518016  1.0
  Li  Li455  1  0.66852963  0.50545959  0.66851350  1.0
  Li  Li456  1  0.66852963  0.83879292  0.00184683  1.0
  Li  Li457  1  0.66852963  0.83879292  0.33518016  1.0
  Li  Li458  1  0.66852963  0.83879292  0.66851350  1.0
  Sc  Sc459  1  0.08322198  0.16487212  0.08356984  1.0
  Sc  Sc460  1  0.08322198  0.16487212  0.41690318  1.0
  Sc  Sc461  1  0.08322198  0.16487212  0.75023651  1.0
  Sc  Sc462  1  0.08322198  0.49820545  0.08356984  1.0
  Sc  Sc463  1  0.08322198  0.49820545  0.41690318  1.0
  Sc  Sc464  1  0.08322198  0.49820545  0.75023651  1.0
  Sc  Sc465  1  0.08322198  0.83153879  0.08356984  1.0
  Sc  Sc466  1  0.08322198  0.83153879  0.41690318  1.0
  Sc  Sc467  1  0.08322198  0.83153879  0.75023651  1.0
  Sc  Sc468  1  0.41655531  0.16487212  0.08356984  1.0
  Sc  Sc469  1  0.41655531  0.16487212  0.41690318  1.0
  Sc  Sc470  1  0.41655531  0.16487212  0.75023651  1.0
  Sc  Sc471  1  0.41655531  0.49820545  0.08356984  1.0
  Sc  Sc472  1  0.41655531  0.49820545  0.41690318  1.0
  Sc  Sc473  1  0.41655531  0.49820545  0.75023651  1.0
  Sc  Sc474  1  0.41655531  0.83153879  0.08356984  1.0
  Sc  Sc475  1  0.41655531  0.83153879  0.41690318  1.0
  Sc  Sc476  1  0.41655531  0.83153879  0.75023651  1.0
  Sc  Sc477  1  0.74988865  0.16487212  0.08356984  1.0
  Sc  Sc478  1  0.74988865  0.16487212  0.41690318  1.0
  Sc  Sc479  1  0.74988865  0.16487212  0.75023651  1.0
  Sc  Sc480  1  0.74988865  0.49820545  0.08356984  1.0
  Sc  Sc481  1  0.74988865  0.49820545  0.41690318  1.0
  Sc  Sc482  1  0.74988865  0.49820545  0.75023651  1.0
  Sc  Sc483  1  0.74988865  0.83153879  0.08356984  1.0
  Sc  Sc484  1  0.74988865  0.83153879  0.41690318  1.0
  Sc  Sc485  1  0.74988865  0.83153879  0.75023651  1.0
  Sc  Sc486  1  0.25004539  0.16855388  0.24995497  1.0
  Sc  Sc487  1  0.25004539  0.16855388  0.58328830  1.0
  Sc  Sc488  1  0.25004539  0.16855388  0.91662163  1.0
  Sc  Sc489  1  0.25004539  0.50188721  0.24995497  1.0
  Sc  Sc490  1  0.25004539  0.50188721  0.58328830  1.0
  Sc  Sc491  1  0.25004539  0.50188721  0.91662163  1.0
  Sc  Sc492  1  0.25004539  0.83522054  0.24995497  1.0
  Sc  Sc493  1  0.25004539  0.83522054  0.58328830  1.0
  Sc  Sc494  1  0.25004539  0.83522054  0.91662163  1.0
  Sc  Sc495  1  0.58337872  0.16855388  0.24995497  1.0
  Sc  Sc496  1  0.58337872  0.16855388  0.58328830  1.0
  Sc  Sc497  1  0.58337872  0.16855388  0.91662163  1.0
  Sc  Sc498  1  0.58337872  0.50188721  0.24995497  1.0
  Sc  Sc499  1  0.58337872  0.50188721  0.58328830  1.0
  Sc  Sc500  1  0.58337872  0.50188721  0.91662163  1.0
  Sc  Sc501  1  0.58337872  0.83522054  0.24995497  1.0
  Sc  Sc502  1  0.58337872  0.83522054  0.58328830  1.0
  Sc  Sc503  1  0.58337872  0.83522054  0.91662163  1.0
  Sc  Sc504  1  0.91671205  0.16855388  0.24995497  1.0
  Sc  Sc505  1  0.91671205  0.16855388  0.58328830  1.0
  Sc  Sc506  1  0.91671205  0.16855388  0.91662163  1.0
  Sc  Sc507  1  0.91671205  0.50188721  0.24995497  1.0
  Sc  Sc508  1  0.91671205  0.50188721  0.58328830  1.0
  Sc  Sc509  1  0.91671205  0.50188721  0.91662163  1.0
  Sc  Sc510  1  0.91671205  0.83522054  0.24995497  1.0
  Sc  Sc511  1  0.91671205  0.83522054  0.58328830  1.0
  Sc  Sc512  1  0.91671205  0.83522054  0.91662163  1.0
  Sc  Sc513  1  0.00176043  0.08331060  0.25364011  1.0
  Sc  Sc514  1  0.00176043  0.08331060  0.58697344  1.0
  Sc  Sc515  1  0.00176043  0.08331060  0.92030677  1.0
  Sc  Sc516  1  0.00176043  0.41664394  0.25364011  1.0
  Sc  Sc517  1  0.00176043  0.41664394  0.58697344  1.0
  Sc  Sc518  1  0.00176043  0.41664394  0.92030677  1.0
  Sc  Sc519  1  0.00176043  0.74997727  0.25364011  1.0
  Sc  Sc520  1  0.00176043  0.74997727  0.58697344  1.0
  Sc  Sc521  1  0.00176043  0.74997727  0.92030677  1.0
  Sc  Sc522  1  0.33509376  0.08331060  0.25364011  1.0
  Sc  Sc523  1  0.33509376  0.08331060  0.58697344  1.0
  Sc  Sc524  1  0.33509376  0.08331060  0.92030677  1.0
  Sc  Sc525  1  0.33509376  0.41664394  0.25364011  1.0
  Sc  Sc526  1  0.33509376  0.41664394  0.58697344  1.0
  Sc  Sc527  1  0.33509376  0.41664394  0.92030677  1.0
  Sc  Sc528  1  0.33509376  0.74997727  0.25364011  1.0
  Sc  Sc529  1  0.33509376  0.74997727  0.58697344  1.0
  Sc  Sc530  1  0.33509376  0.74997727  0.92030677  1.0
  Sc  Sc531  1  0.66842709  0.08331060  0.25364011  1.0