ITEM: TIMESTEP
0
ITEM: NUMBER OF ATOMS
1458
ITEM: BOX BOUNDS xy xz yz pp pp pp
-1.0681139225750498e+00 3.1768555640020178e+01 -3.4462023997898279e-02
-1.4208058931420289e+00 3.2264828496812072e+01 -1.0598191856576492e-01
-1.2956563009725393e+00 3.2156963481401696e+01 -9.5900442286863355e-02
ITEM: ATOMS element x y z
Li 4.060204219005271 4.168318884456502 9.847495752657245 
Li 4.060204219005271 4.168318884456502 20.998471017080025 
Li 4.060204219005271 4.168318884456502 32.14944594697356 
Li 4.060204219005271 15.364902647872608 9.847495752657245 
Li 4.060204219005271 15.364902647872608 20.998471017080025 
Li 4.060204219005271 15.364902647872608 32.14944594697356 
Li 4.060204219005271 26.561486411288715 9.847495752657245 
Li 4.060204219005271 26.561486411288715 20.998471017080025 
Li 4.060204219005271 26.561486411288715 32.14944594697356 
Li 14.958945983361707 4.168318884456502 9.847495752657245 
Li 14.958945983361707 4.168318884456502 20.998471017080025 
Li 14.958945983361707 4.168318884456502 32.14944594697356 
Li 14.958945983361707 15.364902647872608 9.847495752657245 
Li 14.958945983361707 15.364902647872608 20.998471017080025 
Li 14.958945983361707 15.364902647872608 32.14944594697356 
Li 14.958945983361707 26.561486411288715 9.847495752657245 
Li 14.958945983361707 26.561486411288715 20.998471017080025 
Li 14.958945983361707 26.561486411288715 32.14944594697356 
Li 25.857687747718142 4.168318884456502 9.847495752657245 
Li 25.857687747718142 4.168318884456502 20.998471017080025 
Li 25.857687747718142 4.168318884456502 32.14944594697356 
Li 25.857687747718142 15.364902647872608 9.847495752657245 
Li 25.857687747718142 15.364902647872608 20.998471017080025 
Li 25.857687747718142 15.364902647872608 32.14944594697356 
Li 25.857687747718142 26.561486411288715 9.847495752657245 
Li 25.857687747718142 26.561486411288715 20.998471017080025 
Li 25.857687747718142 26.561486411288715 32.14944594697356 
Li 5.513997424333131 8.403538813124316 2.803000858931719 
Li 5.513997424333131 8.403538813124316 13.9539761233545 
Li 5.513997424333131 8.403538813124316 25.10495105324803 
Li 5.513997424333131 19.60012257654042 2.803000858931719 
Li 5.513997424333131 19.60012257654042 13.9539761233545 
Li 5.513997424333131 19.60012257654042 25.10495105324803 
Li 5.513997424333131 30.796706339956526 2.803000858931719 
Li 5.513997424333131 30.796706339956526 13.9539761233545 
Li 5.513997424333131 30.796706339956526 25.10495105324803 
Li 16.412739188689564 8.403538813124316 2.803000858931719 
Li 16.412739188689564 8.403538813124316 13.9539761233545 
Li 16.412739188689564 8.403538813124316 25.10495105324803 
Li 16.412739188689564 19.60012257654042 2.803000858931719 
Li 16.412739188689564 19.60012257654042 13.9539761233545 
Li 16.412739188689564 19.60012257654042 25.10495105324803 
Li 16.412739188689564 30.796706339956526 2.803000858931719 
Li 16.412739188689564 30.796706339956526 13.9539761233545 
Li 16.412739188689564 30.796706339956526 25.10495105324803 
Li 27.311480953046004 8.403538813124316 2.803000858931719 
Li 27.311480953046004 8.403538813124316 13.9539761233545 
Li 27.311480953046004 8.403538813124316 25.10495105324803 
Li 27.311480953046004 19.60012257654042 2.803000858931719 
Li 27.311480953046004 19.60012257654042 13.9539761233545 
Li 27.311480953046004 19.60012257654042 25.10495105324803 
Li 27.311480953046004 30.796706339956526 2.803000858931719 
Li 27.311480953046004 30.796706339956526 13.9539761233545 
Li 27.311480953046004 30.796706339956526 25.10495105324803 
Li 2.8404832928912174 8.278108970294511 5.76217870598132 
Li 2.8404832928912174 8.278108970294511 16.913153635874853 
Li 2.8404832928912174 8.278108970294511 28.06412890029763 
Li 2.8404832928912174 19.474693069608133 5.76217870598132 
Li 2.8404832928912174 19.474693069608133 16.913153635874853 
Li 2.8404832928912174 19.474693069608133 28.06412890029763 
Li 2.8404832928912174 30.671276833024237 5.76217870598132 
Li 2.8404832928912174 30.671276833024237 16.913153635874853 
Li 2.8404832928912174 30.671276833024237 28.06412890029763 
Li 13.739225057247651 8.278108970294511 5.76217870598132 
Li 13.739225057247651 8.278108970294511 16.913153635874853 
Li 13.739225057247651 8.278108970294511 28.06412890029763 
Li 13.739225057247651 19.474693069608133 5.76217870598132 
Li 13.739225057247651 19.474693069608133 16.913153635874853 
Li 13.739225057247651 19.474693069608133 28.06412890029763 
Li 13.739225057247651 30.671276833024237 5.76217870598132 
Li 13.739225057247651 30.671276833024237 16.913153635874853 
Li 13.739225057247651 30.671276833024237 28.06412890029763 
Li 24.637967148566343 8.278108970294511 5.76217870598132 
Li 24.637967148566343 8.278108970294511 16.913153635874853 
Li 24.637967148566343 8.278108970294511 28.06412890029763 
Li 24.637967148566343 19.474693069608133 5.76217870598132 
Li 24.637967148566343 19.474693069608133 16.913153635874853 
Li 24.637967148566343 19.474693069608133 28.06412890029763 
Li 24.637967148566343 30.671276833024237 5.76217870598132 
Li 24.637967148566343 30.671276833024237 16.913153635874853 
Li 24.637967148566343 30.671276833024237 28.06412890029763 
Li 8.182511321990974 5.541632184818796 2.796322316959922 
Li 8.182511321990974 5.541632184818796 13.947297246853452 
Li 8.182511321990974 5.541632184818796 25.09827217674698 
Li 8.182511321990974 16.738215948234902 2.796322316959922 
Li 8.182511321990974 16.738215948234902 13.947297246853452 
Li 8.182511321990974 16.738215948234902 25.09827217674698 
Li 8.182511321990974 27.93480004754852 2.796322316959922 
Li 8.182511321990974 27.93480004754852 13.947297246853452 
Li 8.182511321990974 27.93480004754852 25.09827217674698 
Li 19.08125308634741 5.541632184818796 2.796322316959922 
Li 19.08125308634741 5.541632184818796 13.947297246853452 
Li 19.08125308634741 5.541632184818796 25.09827217674698 
Li 19.08125308634741 16.738215948234902 2.796322316959922 
Li 19.08125308634741 16.738215948234902 13.947297246853452 
Li 19.08125308634741 16.738215948234902 25.09827217674698 
Li 19.08125308634741 27.93480004754852 2.796322316959922 
Li 19.08125308634741 27.93480004754852 13.947297246853452 
Li 19.08125308634741 27.93480004754852 25.09827217674698 
Li 29.979994850703847 5.541632184818796 2.796322316959922 
Li 29.979994850703847 5.541632184818796 13.947297246853452 
Li 29.979994850703847 5.541632184818796 25.09827217674698 
Li 29.979994850703847 16.738215948234902 2.796322316959922 
Li 29.979994850703847 16.738215948234902 13.947297246853452 
Li 29.979994850703847 16.738215948234902 25.09827217674698 
Li 29.979994850703847 27.93480004754852 2.796322316959922 
Li 29.979994850703847 27.93480004754852 13.947297246853452 
Li 29.979994850703847 27.93480004754852 25.09827217674698 
Li 5.513268625464061 0.1690091865895666 5.6403153867510945 
Li 5.513268625464061 0.1690091865895666 16.791290316644623 
Li 5.513268625464061 0.1690091865895666 27.942265246538156 
Li 5.513268625464061 11.365592950005674 5.6403153867510945 
Li 5.513268625464061 11.365592950005674 16.791290316644623 
Li 5.513268625464061 11.365592950005674 27.942265246538156 
Li 5.513268625464061 22.562176713421778 5.6403153867510945 
Li 5.513268625464061 22.562176713421778 16.791290316644623 
Li 5.513268625464061 22.562176713421778 27.942265246538156 
Li 16.412010389820495 0.1690091865895666 5.6403153867510945 
Li 16.412010389820495 0.1690091865895666 16.791290316644623 
Li 16.412010389820495 0.1690091865895666 27.942265246538156 
Li 16.412010389820495 11.365592950005674 5.6403153867510945 
Li 16.412010389820495 11.365592950005674 16.791290316644623 
Li 16.412010389820495 11.365592950005674 27.942265246538156 
Li 16.412010389820495 22.562176713421778 5.6403153867510945 
Li 16.412010389820495 22.562176713421778 16.791290316644623 
Li 16.412010389820495 22.562176713421778 27.942265246538156 
Li 27.31075215417693 0.1690091865895666 5.6403153867510945 
Li 27.31075215417693 0.1690091865895666 16.791290316644623 
Li 27.31075215417693 0.1690091865895666 27.942265246538156 
Li 27.31075215417693 11.365592950005674 5.6403153867510945 
Li 27.31075215417693 11.365592950005674 16.791290316644623 
Li 27.31075215417693 11.365592950005674 27.942265246538156 
Li 27.31075215417693 22.562176713421778 5.6403153867510945 
Li 27.31075215417693 22.562176713421778 16.791290316644623 
Li 27.31075215417693 22.562176713421778 27.942265246538156 
Li 8.41815498180808 8.642773757541148 0.06661681697534652 
Li 8.41815498180808 8.642773757541148 11.217591746868877 
Li 8.41815498180808 8.642773757541148 22.36856701129166 
Li 8.41815498180808 19.83935785685477 0.06661681697534652 
Li 8.41815498180808 19.83935785685477 11.217591746868877 
Li 8.41815498180808 19.83935785685477 22.36856701129166 
Li 8.41815498180808 31.035941620270876 0.06661681697534652 
Li 8.41815498180808 31.035941620270876 11.217591746868877 
Li 8.41815498180808 31.035941620270876 22.36856701129166 
Li 19.31689707312677 8.642773757541148 0.06661681697534652 
Li 19.31689707312677 8.642773757541148 11.217591746868877 
Li 19.31689707312677 8.642773757541148 22.36856701129166 
Li 19.31689707312677 19.83935785685477 0.06661681697534652 
Li 19.31689707312677 19.83935785685477 11.217591746868877 
Li 19.31689707312677 19.83935785685477 22.36856701129166 
Li 19.31689707312677 31.035941620270876 0.06661681697534652 
Li 19.31689707312677 31.035941620270876 11.217591746868877 
Li 19.31689707312677 31.035941620270876 22.36856701129166 
Li 30.215638837483205 8.642773757541148 0.06661681697534652 
Li 30.215638837483205 8.642773757541148 11.217591746868877 
Li 30.215638837483205 8.642773757541148 22.36856701129166 
Li 30.215638837483205 19.83935785685477 0.06661681697534652 
Li 30.215638837483205 19.83935785685477 11.217591746868877 
Li 30.215638837483205 19.83935785685477 22.36856701129166 
Li 30.215638837483205 31.035941620270876 0.06661681697534652 
Li 30.215638837483205 31.035941620270876 11.217591746868877 
Li 30.215638837483205 31.035941620270876 22.36856701129166 
Li 5.501425071657717 5.292283030289814 5.634011517540689 
Li 5.501425071657717 5.292283030289814 16.784986447434218 
Li 5.501425071657717 5.292283030289814 27.935961377327747 
Li 5.501425071657717 16.48886679370592 5.634011517540689 
Li 5.501425071657717 16.48886679370592 16.784986447434218 
Li 5.501425071657717 16.48886679370592 27.935961377327747 
Li 5.501425071657717 27.685450893019542 5.634011517540689 
Li 5.501425071657717 27.685450893019542 16.784986447434218 
Li 5.501425071657717 27.685450893019542 27.935961377327747 
Li 16.40016683601415 5.292283030289814 5.634011517540689 
Li 16.40016683601415 5.292283030289814 16.784986447434218 
Li 16.40016683601415 5.292283030289814 27.935961377327747 
Li 16.40016683601415 16.48886679370592 5.634011517540689 
Li 16.40016683601415 16.48886679370592 16.784986447434218 
Li 16.40016683601415 16.48886679370592 27.935961377327747 
Li 16.40016683601415 27.685450893019542 5.634011517540689 
Li 16.40016683601415 27.685450893019542 16.784986447434218 
Li 16.40016683601415 27.685450893019542 27.935961377327747 
Li 27.298908600370588 5.292283030289814 5.634011517540689 
Li 27.298908600370588 5.292283030289814 16.784986447434218 
Li 27.298908600370588 5.292283030289814 27.935961377327747 
Li 27.298908600370588 16.48886679370592 5.634011517540689 
Li 27.298908600370588 16.48886679370592 16.784986447434218 
Li 27.298908600370588 16.48886679370592 27.935961377327747 
Li 27.298908600370588 27.685450893019542 5.634011517540689 
Li 27.298908600370588 27.685450893019542 16.784986447434218 
Li 27.298908600370588 27.685450893019542 27.935961377327747 
Li 5.384831965907965 8.402243592301613 8.357563351948665 
Li 5.384831965907965 8.402243592301613 19.508538616371446 
Li 5.384831965907965 8.402243592301613 30.659513546264975 
Li 5.384831965907965 19.59882769161523 8.357563351948665 
Li 5.384831965907965 19.59882769161523 19.508538616371446 
Li 5.384831965907965 19.59882769161523 30.659513546264975 
Li 5.384831965907965 30.79541145503134 8.357563351948665 
Li 5.384831965907965 30.79541145503134 19.508538616371446 
Li 5.384831965907965 30.79541145503134 30.659513546264975 
Li 16.28357405722666 8.402243592301613 8.357563351948665 
Li 16.28357405722666 8.402243592301613 19.508538616371446 
Li 16.28357405722666 8.402243592301613 30.659513546264975 
Li 16.28357405722666 19.59882769161523 8.357563351948665 
Li 16.28357405722666 19.59882769161523 19.508538616371446 
Li 16.28357405722666 19.59882769161523 30.659513546264975 
Li 16.28357405722666 30.79541145503134 8.357563351948665 
Li 16.28357405722666 30.79541145503134 19.508538616371446 
Li 16.28357405722666 30.79541145503134 30.659513546264975 
Li 27.182315821583092 8.402243592301613 8.357563351948665 
Li 27.182315821583092 8.402243592301613 19.508538616371446 
Li 27.182315821583092 8.402243592301613 30.659513546264975 
Li 27.182315821583092 19.59882769161523 8.357563351948665 
Li 27.182315821583092 19.59882769161523 19.508538616371446 
Li 27.182315821583092 19.59882769161523 30.659513546264975 
Li 27.182315821583092 30.79541145503134 8.357563351948665 
Li 27.182315821583092 30.79541145503134 19.508538616371446 
Li 27.182315821583092 30.79541145503134 30.659513546264975 
Li 2.592639363446254 8.519825189663965 10.9651051254354 
Li 2.592639363446254 8.519825189663965 22.116080055328933 
Li 2.592639363446254 8.519825189663965 33.26705498522246 
Li 2.592639363446254 19.716408953080073 10.9651051254354 
Li 2.592639363446254 19.716408953080073 22.116080055328933 
Li 2.592639363446254 19.716408953080073 33.26705498522246 
Li 2.592639363446254 30.912992716496177 10.9651051254354 
Li 2.592639363446254 30.912992716496177 22.116080055328933 
Li 2.592639363446254 30.912992716496177 33.26705498522246 
Li 13.49138112780269 8.519825189663965 10.9651051254354 
Li 13.49138112780269 8.519825189663965 22.116080055328933 
Li 13.49138112780269 8.519825189663965 33.26705498522246 
Li 13.49138112780269 19.716408953080073 10.9651051254354 
Li 13.49138112780269 19.716408953080073 22.116080055328933 
Li 13.49138112780269 19.716408953080073 33.26705498522246 
Li 13.49138112780269 30.912992716496177 10.9651051254354 
Li 13.49138112780269 30.912992716496177 22.116080055328933 
Li 13.49138112780269 30.912992716496177 33.26705498522246 
Li 24.390122892159123 8.519825189663965 10.9651051254354 
Li 24.390122892159123 8.519825189663965 22.116080055328933 
Li 24.390122892159123 8.519825189663965 33.26705498522246 
Li 24.390122892159123 19.716408953080073 10.9651051254354 
Li 24.390122892159123 19.716408953080073 22.116080055328933 
Li 24.390122892159123 19.716408953080073 33.26705498522246 
Li 24.390122892159123 30.912992716496177 10.9651051254354 
Li 24.390122892159123 30.912992716496177 22.116080055328933 
Li 24.390122892159123 30.912992716496177 33.26705498522246 
Li 2.8421632249635747 2.798921477338785 5.51088969926729 
Li 2.8421632249635747 2.798921477338785 16.66186462916082 
Li 2.8421632249635747 2.798921477338785 27.81283955905435 
Li 2.8421632249635747 13.99550524075489 5.51088969926729 
Li 2.8421632249635747 13.99550524075489 16.66186462916082 
Li 2.8421632249635747 13.99550524075489 27.81283955905435 
Li 2.8421632249635747 25.192089004170995 5.51088969926729 
Li 2.8421632249635747 25.192089004170995 16.66186462916082 
Li 2.8421632249635747 25.192089004170995 27.81283955905435 
Li 13.740905316282266 2.798921477338785 5.51088969926729 
Li 13.740905316282266 2.798921477338785 16.66186462916082 
Li 13.740905316282266 2.798921477338785 27.81283955905435 
Li 13.740905316282266 13.99550524075489 5.51088969926729 
Li 13.740905316282266 13.99550524075489 16.66186462916082 
Li 13.740905316282266 13.99550524075489 27.81283955905435 
Li 13.740905316282266 25.192089004170995 5.51088969926729 
Li 13.740905316282266 25.192089004170995 16.66186462916082 
Li 13.740905316282266 25.192089004170995 27.81283955905435 
Li 24.639647080638703 2.798921477338785 5.51088969926729 
Li 24.639647080638703 2.798921477338785 16.66186462916082 
Li 24.639647080638703 2.798921477338785 27.81283955905435 
Li 24.639647080638703 13.99550524075489 5.51088969926729 
Li 24.639647080638703 13.99550524075489 16.66186462916082 
Li 24.639647080638703 13.99550524075489 27.81283955905435 
Li 24.639647080638703 25.192089004170995 5.51088969926729 
Li 24.639647080638703 25.192089004170995 16.66186462916082 
Li 24.639647080638703 25.192089004170995 27.81283955905435 
Li 8.292779342894532 2.9105157014737806 0.18414798240198665 
Li 8.292779342894532 2.9105157014737806 11.335122912295517 
Li 8.292779342894532 2.9105157014737806 22.486097842189047 
Li 8.292779342894532 14.107099464889886 0.18414798240198665 
Li 8.292779342894532 14.107099464889886 11.335122912295517 
Li 8.292779342894532 14.107099464889886 22.486097842189047 
Li 8.292779342894532 25.30368356420351 0.18414798240198665 
Li 8.292779342894532 25.30368356420351 11.335122912295517 
Li 8.292779342894532 25.30368356420351 22.486097842189047 
Li 19.19152143421322 2.9105157014737806 0.18414798240198665 
Li 19.19152143421322 2.9105157014737806 11.335122912295517 
Li 19.19152143421322 2.9105157014737806 22.486097842189047 
Li 19.19152143421322 14.107099464889886 0.18414798240198665 
Li 19.19152143421322 14.107099464889886 11.335122912295517 
Li 19.19152143421322 14.107099464889886 22.486097842189047 
Li 19.19152143421322 25.30368356420351 0.18414798240198665 
Li 19.19152143421322 25.30368356420351 11.335122912295517 
Li 19.19152143421322 25.30368356420351 22.486097842189047 
Li 30.090263198569655 2.9105157014737806 0.18414798240198665 
Li 30.090263198569655 2.9105157014737806 11.335122912295517 
Li 30.090263198569655 2.9105157014737806 22.486097842189047 
Li 30.090263198569655 14.107099464889886 0.18414798240198665 
Li 30.090263198569655 14.107099464889886 11.335122912295517 
Li 30.090263198569655 14.107099464889886 22.486097842189047 
Li 30.090263198569655 25.30368356420351 0.18414798240198665 
Li 30.090263198569655 25.30368356420351 11.335122912295517 
Li 30.090263198569655 25.30368356420351 22.486097842189047 
Li 5.514572223979531 2.800271785354156 2.9150119571836135 
Li 5.514572223979531 2.800271785354156 14.065987221606395 
Li 5.514572223979531 2.800271785354156 25.216962151499928 
Li 5.514572223979531 13.996855884667779 2.9150119571836135 
Li 5.514572223979531 13.996855884667779 14.065987221606395 
Li 5.514572223979531 13.996855884667779 25.216962151499928 
Li 5.514572223979531 25.193439648083885 2.9150119571836135 
Li 5.514572223979531 25.193439648083885 14.065987221606395 
Li 5.514572223979531 25.193439648083885 25.216962151499928 
Li 16.413313988335968 2.800271785354156 2.9150119571836135 
Li 16.413313988335968 2.800271785354156 14.065987221606395 
Li 16.413313988335968 2.800271785354156 25.216962151499928 
Li 16.413313988335968 13.996855884667779 2.9150119571836135 
Li 16.413313988335968 13.996855884667779 14.065987221606395 
Li 16.413313988335968 13.996855884667779 25.216962151499928 
Li 16.413313988335968 25.193439648083885 2.9150119571836135 
Li 16.413313988335968 25.193439648083885 14.065987221606395 
Li 16.413313988335968 25.193439648083885 25.216962151499928 
Li 27.3120557526924 2.800271785354156 2.9150119571836135 
Li 27.3120557526924 2.800271785354156 14.065987221606395 
Li 27.3120557526924 2.800271785354156 25.216962151499928 
Li 27.3120557526924 13.996855884667779 2.9150119571836135 
Li 27.3120557526924 13.996855884667779 14.065987221606395 
Li 27.3120557526924 13.996855884667779 25.216962151499928 
Li 27.3120557526924 25.193439648083885 2.9150119571836135 
Li 27.3120557526924 25.193439648083885 14.065987221606395 
Li 27.3120557526924 25.193439648083885 25.216962151499928 
Li 10.87175789631448 8.458744577614434 2.7074823872953115 
Li 10.87175789631448 8.458744577614434 13.858457317188842 
Li 10.87175789631448 8.458744577614434 25.00943224708237 
Li 10.87175789631448 19.65532834103054 2.7074823872953115 
Li 10.87175789631448 19.65532834103054 13.858457317188842 
Li 10.87175789631448 19.65532834103054 25.00943224708237 
Li 10.87175789631448 30.85191244034416 2.7074823872953115 
Li 10.87175789631448 30.85191244034416 13.858457317188842 
Li 10.87175789631448 30.85191244034416 25.00943224708237 
Li 21.770499660670914 8.458744577614434 2.7074823872953115 
Li 21.770499660670914 8.458744577614434 13.858457317188842 
Li 21.770499660670914 8.458744577614434 25.00943224708237 
Li 21.770499660670914 19.65532834103054 2.7074823872953115 
Li 21.770499660670914 19.65532834103054 13.858457317188842 
Li 21.770499660670914 19.65532834103054 25.00943224708237 
Li 21.770499660670914 30.85191244034416 2.7074823872953115 
Li 21.770499660670914 30.85191244034416 13.858457317188842 
Li 21.770499660670914 30.85191244034416 25.00943224708237 
Li 32.66924175198961 8.458744577614434 2.7074823872953115 
Li 32.66924175198961 8.458744577614434 13.858457317188842 
Li 32.66924175198961 8.458744577614434 25.00943224708237 
Li 32.66924175198961 19.65532834103054 2.7074823872953115 
Li 32.66924175198961 19.65532834103054 13.858457317188842 
Li 32.66924175198961 19.65532834103054 25.00943224708237 
Li 32.66924175198961 30.85191244034416 2.7074823872953115 
Li 32.66924175198961 30.85191244034416 13.858457317188842 
Li 32.66924175198961 30.85191244034416 25.00943224708237 
Li 8.169028052469786 8.402751805243714 5.626073472937965 
Li 8.169028052469786 8.402751805243714 16.777048402831497 
Li 8.169028052469786 8.402751805243714 27.928023332725026 
Li 8.169028052469786 19.59933556865982 5.626073472937965 
Li 8.169028052469786 19.59933556865982 16.777048402831497 
Li 8.169028052469786 19.59933556865982 27.928023332725026 
Li 8.169028052469786 30.795919667973443 5.626073472937965 
Li 8.169028052469786 30.795919667973443 16.777048402831497 
Li 8.169028052469786 30.795919667973443 27.928023332725026 
Li 19.067770143788476 8.402751805243714 5.626073472937965 
Li 19.067770143788476 8.402751805243714 16.777048402831497 
Li 19.067770143788476 8.402751805243714 27.928023332725026 
Li 19.067770143788476 19.59933556865982 5.626073472937965 
Li 19.067770143788476 19.59933556865982 16.777048402831497 
Li 19.067770143788476 19.59933556865982 27.928023332725026 
Li 19.067770143788476 30.795919667973443 5.626073472937965 
Li 19.067770143788476 30.795919667973443 16.777048402831497 
Li 19.067770143788476 30.795919667973443 27.928023332725026 
Li 29.966511908144913 8.402751805243714 5.626073472937965 
Li 29.966511908144913 8.402751805243714 16.777048402831497 
Li 29.966511908144913 8.402751805243714 27.928023332725026 
Li 29.966511908144913 19.59933556865982 5.626073472937965 
Li 29.966511908144913 19.59933556865982 16.777048402831497 
Li 29.966511908144913 19.59933556865982 27.928023332725026 
Li 29.966511908144913 30.795919667973443 5.626073472937965 
Li 29.966511908144913 30.795919667973443 16.777048402831497 
Li 29.966511908144913 30.795919667973443 27.928023332725026 
Li 2.7295433645511693 11.01036150860572 8.374297174154298 
Li 2.7295433645511693 11.01036150860572 19.52527210404783 
Li 2.7295433645511693 11.01036150860572 30.67624736847061 
Li 2.7295433645511693 22.206945272021827 8.374297174154298 
Li 2.7295433645511693 22.206945272021827 19.52527210404783 
Li 2.7295433645511693 22.206945272021827 30.67624736847061 
Li 2.7295433645511693 33.403529035437934 8.374297174154298 
Li 2.7295433645511693 33.403529035437934 19.52527210404783 
Li 2.7295433645511693 33.403529035437934 30.67624736847061 
Li 13.628285128907603 11.01036150860572 8.374297174154298 
Li 13.628285128907603 11.01036150860572 19.52527210404783 
Li 13.628285128907603 11.01036150860572 30.67624736847061 
Li 13.628285128907603 22.206945272021827 8.374297174154298 
Li 13.628285128907603 22.206945272021827 19.52527210404783 
Li 13.628285128907603 22.206945272021827 30.67624736847061 
Li 13.628285128907603 33.403529035437934 8.374297174154298 
Li 13.628285128907603 33.403529035437934 19.52527210404783 
Li 13.628285128907603 33.403529035437934 30.67624736847061 
Li 24.52702689326404 11.01036150860572 8.374297174154298 
Li 24.52702689326404 11.01036150860572 19.52527210404783 
Li 24.52702689326404 11.01036150860572 30.67624736847061 
Li 24.52702689326404 22.206945272021827 8.374297174154298 
Li 24.52702689326404 22.206945272021827 19.52527210404783 
Li 24.52702689326404 22.206945272021827 30.67624736847061 
Li 24.52702689326404 33.403529035437934 8.374297174154298 
Li 24.52702689326404 33.403529035437934 19.52527210404783 
Li 24.52702689326404 33.403529035437934 30.67624736847061 
Li 8.269938740563145 0.38876375455081674 2.791171235549296 
Li 8.269938740563145 0.38876375455081674 13.942146165442827 
Li 8.269938740563145 0.38876375455081674 25.093121095336354 
Li 8.269938740563145 11.58534785386444 2.791171235549296 
Li 8.269938740563145 11.58534785386444 13.942146165442827 
Li 8.269938740563145 11.58534785386444 25.093121095336354 
Li 8.269938740563145 22.781931617280545 2.791171235549296 
Li 8.269938740563145 22.781931617280545 13.942146165442827 
Li 8.269938740563145 22.781931617280545 25.093121095336354 
Li 19.168680504919582 0.38876375455081674 2.791171235549296 
Li 19.168680504919582 0.38876375455081674 13.942146165442827 
Li 19.168680504919582 0.38876375455081674 25.093121095336354 
Li 19.168680504919582 11.58534785386444 2.791171235549296 
Li 19.168680504919582 11.58534785386444 13.942146165442827 
Li 19.168680504919582 11.58534785386444 25.093121095336354 
Li 19.168680504919582 22.781931617280545 2.791171235549296 
Li 19.168680504919582 22.781931617280545 13.942146165442827 
Li 19.168680504919582 22.781931617280545 25.093121095336354 
Li 30.067422269276015 0.38876375455081674 2.791171235549296 
Li 30.067422269276015 0.38876375455081674 13.942146165442827 
Li 30.067422269276015 0.38876375455081674 25.093121095336354 
Li 30.067422269276015 11.58534785386444 2.791171235549296 
Li 30.067422269276015 11.58534785386444 13.942146165442827 
Li 30.067422269276015 11.58534785386444 25.093121095336354 
Li 30.067422269276015 22.781931617280545 2.791171235549296 
Li 30.067422269276015 22.781931617280545 13.942146165442827 
Li 30.067422269276015 22.781931617280545 25.093121095336354 
Li 0.0609120874433502 5.781677985839885 0.06178186570714446 
Li 0.0609120874433502 5.781677985839885 11.212756795600674 
Li 0.0609120874433502 5.781677985839885 22.363732060023455 
Li 0.0609120874433502 16.978262085153506 0.06178186570714446 
Li 0.0609120874433502 16.978262085153506 11.212756795600674 
Li 0.0609120874433502 16.978262085153506 22.363732060023455 
Li 0.0609120874433502 28.174845848569614 0.06178186570714446 
Li 0.0609120874433502 28.174845848569614 11.212756795600674 
Li 0.0609120874433502 28.174845848569614 22.363732060023455 
Li 10.959653851799786 5.781677985839885 0.06178186570714446 
Li 10.959653851799786 5.781677985839885 11.212756795600674 
Li 10.959653851799786 5.781677985839885 22.363732060023455 
Li 10.959653851799786 16.978262085153506 0.06178186570714446 
Li 10.959653851799786 16.978262085153506 11.212756795600674 
Li 10.959653851799786 16.978262085153506 22.363732060023455 
Li 10.959653851799786 28.174845848569614 0.06178186570714446 
Li 10.959653851799786 28.174845848569614 11.212756795600674 
Li 10.959653851799786 28.174845848569614 22.363732060023455 
Li 21.85839561615622 5.781677985839885 0.06178186570714446 
Li 21.85839561615622 5.781677985839885 11.212756795600674 
Li 21.85839561615622 5.781677985839885 22.363732060023455 
Li 21.85839561615622 16.978262085153506 0.06178186570714446 
Li 21.85839561615622 16.978262085153506 11.212756795600674 
Li 21.85839561615622 16.978262085153506 22.363732060023455 
Li 21.85839561615622 28.174845848569614 0.06178186570714446 
Li 21.85839561615622 28.174845848569614 11.212756795600674 
Li 21.85839561615622 28.174845848569614 22.363732060023455 
Sc 2.721044634625754 5.538013560876111 2.795655600162197 
Sc 2.721044634625754 5.538013560876111 13.946630864584977 
Sc 2.721044634625754 5.538013560876111 25.097605794478508 
Sc 2.721044634625754 16.734597324292217 2.795655600162197 
Sc 2.721044634625754 16.734597324292217 13.946630864584977 
Sc 2.721044634625754 16.734597324292217 25.097605794478508 
Sc 2.721044634625754 27.93118142360584 2.795655600162197 
Sc 2.721044634625754 27.93118142360584 13.946630864584977 
Sc 2.721044634625754 27.93118142360584 25.097605794478508 
Sc 13.61978639898219 5.538013560876111 2.795655600162197 
Sc 13.61978639898219 5.538013560876111 13.946630864584977 
Sc 13.61978639898219 5.538013560876111 25.097605794478508 
Sc 13.61978639898219 16.734597324292217 2.795655600162197 
Sc 13.61978639898219 16.734597324292217 13.946630864584977 
Sc 13.61978639898219 16.734597324292217 25.097605794478508 
Sc 13.61978639898219 27.93118142360584 2.795655600162197 
Sc 13.61978639898219 27.93118142360584 13.946630864584977 
Sc 13.61978639898219 27.93118142360584 25.097605794478508 
Sc 24.518528490300884 5.538013560876111 2.795655600162197 
Sc 24.518528490300884 5.538013560876111 13.946630864584977 
Sc 24.518528490300884 5.538013560876111 25.097605794478508 
Sc 24.518528490300884 16.734597324292217 2.795655600162197 
Sc 24.518528490300884 16.734597324292217 13.946630864584977 
Sc 24.518528490300884 16.734597324292217 25.097605794478508 
Sc 24.518528490300884 27.93118142360584 2.795655600162197 
Sc 24.518528490300884 27.93118142360584 13.946630864584977 
Sc 24.518528490300884 27.93118142360584 25.097605794478508 
Sc 8.175540486688783 5.661682964823189 8.361724895834117 
Sc 8.175540486688783 5.661682964823189 19.512699825727648 
Sc 8.175540486688783 5.661682964823189 30.663674755621177 
Sc 8.175540486688783 16.858266728239297 8.361724895834117 
Sc 8.175540486688783 16.858266728239297 19.512699825727648 
Sc 8.175540486688783 16.858266728239297 30.663674755621177 
Sc 8.175540486688783 28.0548504916554 8.361724895834117 
Sc 8.175540486688783 28.0548504916554 19.512699825727648 
Sc 8.175540486688783 28.0548504916554 30.663674755621177 
Sc 19.07428225104522 5.661682964823189 8.361724895834117 
Sc 19.07428225104522 5.661682964823189 19.512699825727648 
Sc 19.07428225104522 5.661682964823189 30.663674755621177 