LAMMPS (7 Aug 2019)
  using 1 OpenMP thread(s) per MPI task

# Input written to comply with LAMMPS 2017-08-11 00:00:00

# Atomic Configuration
units           metal
boundary        p p p
box             tilt large
atom_style      charge
read_data       triclinic_9x9x9.lmp
  orthogonal box = (0 0 0) to (93.6333 93.6333 93.6333)
  4 by 5 by 8 MPI processor grid
  reading atoms ...
  39366 atoms
  read_data CPU = 0.068094 secs
group           lithium type 1
12393 atoms in group lithium
group           scandium type 2
3645 atoms in group scandium
group           chloride type 3
23328 atoms in group chloride
variable        T1 equal 400
variable        dt equal 0.001

# Potential Setup
pair_style      buck/coul/long 12.0
pair_coeff      * * 0.0 1.0 0.0
pair_coeff      1 1    360.530000  0.161000   0.000000 # Li Li
pair_coeff      1 3    421.040000  0.344000   0.000000 # Li Cl
pair_coeff      3 3   1227.200000  0.321000  14.530000 # Cl Cl
pair_coeff      2 3  12131.350000  0.250700   0.000000 # Sc Cl

kspace_style    pppm 1e-05

# General Setup
timestep        ${dt}
timestep        0.001

# Thermodynamic Information Output
thermo_style    custom step temp epair emol etotal press lx ly lz fmax cpu cpuremain
thermo          1000

# Intial Atom Velocity
velocity        all create ${T1} 713713 dist gaussian rot yes
velocity        all create 400 713713 dist gaussian rot yes

# Stage 0: npt_equilibriation
restart         0
fix             int all npt aniso 1.0 1.0 $(1000*dt) temp ${T1} ${T1} $(100*dt)
fix             int all npt aniso 1.0 1.0 1 temp ${T1} ${T1} $(100*dt)
fix             int all npt aniso 1.0 1.0 1 temp 400 ${T1} $(100*dt)
fix             int all npt aniso 1.0 1.0 1 temp 400 400 $(100*dt)
fix             int all npt aniso 1.0 1.0 1 temp 400 400 0.10000000000000000555
run             50000
PPPM initialization ...
  using 12-bit tables for long-range coulomb (../kspace.cpp:323)
  G vector (1/distance) = 0.264753
  grid = 81 81 81
  stencil order = 5
  estimated absolute RMS force accuracy = 0.000184939
  estimated relative force accuracy = 1.28433e-05
  using double precision MKL FFT
  3d grid and FFT values/proc = 10557 4374
Neighbor list info ...
  update every 1 steps, delay 10 steps, check yes
  max neighbors/atom: 2000, page size: 100000
  master list distance cutoff = 14
  ghost atom cutoff = 14
  binsize = 7, bins = 14 14 14
  1 neighbor lists, perpetual/occasional/extra = 1 0 0
  (1) pair buck/coul/long, perpetual
      attributes: half, newton on
      pair build: half/bin/atomonly/newton
      stencil: half/bin/3d/newton
      bin: standard
Per MPI rank memory allocation (min/avg/max) = 4.13 | 4.213 | 4.586 Mbytes
Step Temp E_pair E_mol TotEng Press Lx Ly Lz Fmax CPU CPULeft 
       0          400   -239308.38            0   -237273.05   -7060.0084      93.6333      93.6333      93.6333    5.7883125            0            0 
    1000    428.78674   -273607.19            0   -271425.39   -465.59856    97.389944    99.934742    99.928989    3.8264286      6.64135     325.4262 
    2000     395.4721    -274300.6            0   -272288.31   -71.095572    97.315444    99.528267    99.721024    3.8641289    13.642387    327.41746 
    3000    401.94158   -274469.59            0   -272424.38   -126.36144    97.411614    99.249325    99.702098    3.8367796    20.382412    319.32447 
    4000    400.78984    -274570.7            0   -272531.36   -19.951919    97.390315    99.051458    99.641402    3.7055003    26.751638    307.64384 
    5000    401.32486   -274629.51            0   -272587.44   -186.01226    97.348601    98.948417    99.632243    3.7979494    33.321563    299.89408 
    6000     398.7664   -274672.81            0   -272643.76    34.233691    97.300215    98.835395    99.718228    3.7583815    39.684809    291.02194 
    7000    402.72709   -274740.05            0   -272690.84    234.43155    97.192939    98.814823    99.623779    3.1856842    46.126264    283.34706 
    8000    397.77076   -274738.83            0   -272714.84    -120.7136    97.186398    98.907142    99.608653    4.0049822     53.07124    278.62402 
    9000    397.13815   -274781.07            0    -272760.3    173.97756    97.167775    98.873172    99.613476    4.2401181    59.968483    273.18976 
   10000    403.24551    -274799.1            0   -272747.26    239.98379    97.130748    98.908037    99.543172    3.3142841    66.271525     265.0861 
   11000    402.55444   -274808.16            0   -272759.83    244.00377    97.067911    98.837739    99.660617    3.5256364    72.885551    258.41241 
   12000    398.32126   -274842.27            0   -272815.48   -75.889561    97.028354    98.986075    99.536719    3.5203861    79.239585    250.92535 
   13000    398.43565   -274861.99            0   -272834.62    233.35976     97.01985    99.003483    99.450884    3.4527901    85.760607    244.08788 
   14000    402.16297   -274872.63            0    -272826.3    76.434657    97.085652    99.033908    99.334474    4.4770642    92.824993    238.69284 
   15000    400.55857    -274880.5            0   -272842.33    139.55662    96.987757    98.983349    99.522189    4.4624356    99.785233    232.83221 
   16000     399.3796   -274896.43            0   -272864.26   -75.763068    96.936231    99.013805    99.451388    3.8085354    106.13619     225.5394 
   17000    398.01693   -274896.02            0   -272870.78    90.600791    96.970023    98.861997    99.561417    3.5608611    112.94474    219.24568 
   18000    398.97624   -274920.76            0   -272890.63   -100.47159    96.916747    98.909538    99.526039    3.3866225    119.26509    212.02682 
   19000    400.20129   -274941.94            0   -272905.58    68.650595    96.904648    98.811129    99.487619    4.0606748    125.70306    205.09446 
   20000    398.67786   -274928.11            0   -272899.51    139.14902     97.01101    98.680264    99.636561    3.5049805     132.6175    198.92625 
   21000    400.14045   -274959.64            0    -272923.6   -231.89755    97.111501    98.709514    99.553855    4.0907501    139.49482     192.6357 
   22000    402.47002   -274964.12            0   -272916.22     63.56472    96.957557    98.730101    99.540058    4.0590969    145.86249    185.64317 
   23000    402.48124   -274991.82            0   -272943.87    14.597472     96.94004    98.814363    99.441691    3.8168239    152.57409    179.10872 
   24000    401.93693   -274967.87            0   -272922.69    27.427353    96.890487    98.620796    99.670837    4.0273257     158.8509    172.08847 
   25000    399.97243   -274981.36            0   -272946.17    87.114482    96.951269    98.660158    99.461517    3.6672676    165.17381    165.17382 
   26000    398.33056   -274990.04            0   -272963.21    53.555134    96.925942    98.726717    99.504298    3.4835737    172.19466    158.94892 
   27000     401.1464   -274989.98            0   -272948.82   -91.199172    96.969431    98.647019    99.530793     3.851698    179.04697    152.52149 
   28000    399.78135   -275009.09            0   -272974.87    68.699351    96.947046    98.573305    99.539711    3.4809901     185.3436    145.62711 
   29000    399.73344   -274991.96            0   -272957.98   -35.569622    96.892076    98.651339    99.448624    3.8188832    191.92337    138.97899 
   30000    399.81386   -275027.34            0   -272992.96    32.395243    97.000116    98.537752    99.519713    3.5476815    198.35175     132.2345 
   31000    399.48458   -275011.54            0   -272978.83   -96.844804    96.958909    98.654744    99.553832    3.7895439    204.77545    125.50754 
   32000    401.56064   -275021.02            0   -272977.75    -130.1614    96.815248    98.782169    99.484402    4.1208478    211.87725    119.18096 
   33000    400.36384   -275038.64            0   -273001.46   -11.791059    96.981009    98.707668    99.392619    3.2735118    218.64086    112.63317 
   34000    400.45094   -275037.52            0   -272999.89    91.507993    96.964423    98.570288     99.45137    3.4238088    225.08188    105.92089 
   35000    397.82364   -275019.88            0   -272995.62    65.411638    96.856755     98.69418    99.399339    4.3430786     231.7601    99.325758 
   36000    398.96355   -275049.13            0   -273019.07    270.16019    96.869935    98.638873    99.427613     3.249932    238.05776    92.578017 
   37000    400.26812   -275039.22            0   -273002.52    48.171997    96.955352    98.791818    99.266824    3.4030028    244.42094    85.877629 
   38000    399.17243    -275053.8            0   -273022.68    131.56487    96.882868    98.702845    99.371626    3.6726784    251.47065    79.411785 
   39000    399.71514   -275057.13            0   -273023.25    94.194205    96.788291    98.716513    99.508548     3.747751    258.32807    72.861764 
   40000    399.74094   -275063.48            0   -273029.47   -71.545043    96.966812    98.729761     99.32541    3.8361584    264.83593    66.208982 
   41000    400.10855    -275051.2            0   -273015.32    98.101792    97.001139    98.564994      99.4536    3.8092294    271.45142    59.586898 
   42000    396.94437   -275054.02            0   -273034.24   -319.44516    96.974977    98.661256    99.382294    3.4607655    277.80166    52.914603 
   43000    401.33371   -275052.19            0   -273010.07    24.159333    96.893571    98.803487    99.209734    3.4470173    284.06603    46.243307 
   44000    400.35521   -275065.28            0   -273028.15   -4.5923567    96.852648    98.680365     99.31844    3.3147711    291.09713    39.695064 
   45000    400.85656   -275066.49            0    -273026.8     17.10746    96.835139    98.756641    99.327926    3.2678344    297.94838    33.105375 
   46000    396.95716   -275050.25            0    -273030.4   -186.40683    96.963934    98.717388    99.268246    3.6699208    304.40001    26.469566 
   47000    398.07032   -275075.42            0   -273049.91    95.840475    96.824583    98.745667    99.321354    3.4494536    311.07593     19.85591 
   48000    402.49323   -275083.54            0   -273035.52   -42.851383    97.000075    98.697654    99.233738    3.9923595    317.42294    13.225956 
   49000    400.44887   -275095.71            0   -273058.09     149.1711    96.865452    98.805349    99.207137    3.1103191    323.68782     6.605874 
   50000    399.44724   -275081.49            0   -273048.97   -76.264931    96.856887    98.744064    99.242785    3.5266883    330.67744            0 
Loop time of 330.678 on 160 procs for 50000 steps with 39366 atoms

Performance: 13.064 ns/day, 1.837 hours/ns, 151.205 timesteps/s
98.9% CPU use with 160 MPI tasks x 1 OpenMP threads

MPI task timing breakdown:
Section |  min time  |  avg time  |  max time  |%varavg| %total
---------------------------------------------------------------
Pair    | 68.083     | 76.037     | 85.159     |  39.5 | 22.99
Kspace  | 176.94     | 186.47     | 194.66     |  25.7 | 56.39
Neigh   | 1.7594     | 1.8836     | 2.0391     |   4.3 |  0.57
Comm    | 29.84      | 30.952     | 32.023     |   7.4 |  9.36
Output  | 0.0032868  | 0.0033346  | 0.0045657  |   0.2 |  0.00
Modify  | 26.138     | 27.759     | 32.971     |  22.9 |  8.39
Other   |            | 7.577      |            |       |  2.29

Nlocal:    246.037 ave 266 max 231 min
Histogram: 9 12 17 20 46 27 16 9 2 2
Nghost:    3935.18 ave 4001 max 3873 min
Histogram: 1 11 19 17 29 37 29 11 4 2
Neighs:    58532.8 ave 66478 max 52216 min
Histogram: 4 13 19 28 38 29 15 8 4 2

Total # of neighbors = 9365245
Ave neighs/atom = 237.902
Neighbor list builds = 1468
Dangerous builds = 6

# Stage 1: nvt_equilibriation
unfix           int
restart         0
fix             int all nvt temp ${T1} ${T1} $(100*dt)
fix             int all nvt temp 400 ${T1} $(100*dt)
fix             int all nvt temp 400 400 $(100*dt)
fix             int all nvt temp 400 400 0.10000000000000000555
run             6000000
PPPM initialization ...
  using 12-bit tables for long-range coulomb (../kspace.cpp:323)
  G vector (1/distance) = 0.267313
  grid = 90 90 90
  stencil order = 5
  estimated absolute RMS force accuracy = 0.000136465
  estimated relative force accuracy = 9.47697e-06
  using double precision MKL FFT
  3d grid and FFT values/proc = 13050 4968
Per MPI rank memory allocation (min/avg/max) = 4.365 | 4.461 | 4.82 Mbytes
Step Temp E_pair E_mol TotEng Press Lx Ly Lz Fmax CPU CPULeft 
   50000    399.44724   -275081.59            0   -273049.07   -77.369838    96.856887    98.744064    99.242785    3.5268384            0            0 
   51000    397.89939   -275093.23            0   -273068.59    197.78015    96.856887    98.744064    99.242785    3.0522535    6.8496211    41090.882 
   52000    398.89967   -275095.74            0      -273066   -22.134669    96.856887    98.744064    99.242785    3.6612599    13.509677    40515.522 
   53000    397.85246   -275097.88            0   -273073.48   -112.01551    96.856887    98.744064    99.242785    3.9236392    20.196489    40372.784 
   54000    402.26303   -275109.53            0   -273062.69    62.149054    96.856887    98.744064    99.242785    3.1608298    26.704389    40029.879 
   55000    399.46177   -275101.41            0   -273068.82   -132.71268    96.856887    98.744064    99.242785    3.5229171    33.169341    39770.041 
   56000    397.40936   -275109.13            0   -273086.98     51.98811    96.856887    98.744064    99.242785    3.5509066    40.087946    40047.858 
   57000    400.77002   -275120.96            0   -273081.71    126.32473    96.856887    98.744064    99.242785    3.4885285    46.919289    40169.615 
   58000    399.70436   -275110.47            0   -273076.64    19.792009    96.856887    98.744064    99.242785     3.548771    53.483165    40058.891 
   59000    394.54057   -275123.91            0   -273116.36   -123.45375    96.856887    98.744064    99.242785    3.8074517    60.128102    40025.274 
   60000    401.51935   -275112.45            0   -273069.39    35.334029    96.856887    98.744064    99.242785    3.4150692    66.684893    39944.252 
   61000    398.61041   -275114.59            0   -273086.33   -143.90149    96.856887    98.744064    99.242785    3.8570665    73.115958    39808.316 
   62000    401.56938   -275112.98            0   -273069.67    -59.89633    96.856887    98.744064    99.242785    3.1557019    80.013516    39926.745 
   63000    399.98789   -275118.17            0    -273082.9   -203.17334    96.856887    98.744064    99.242785    3.4258796    86.891359    40016.813 
   64000     400.3366   -275109.01            0   -273071.96   -146.85878    96.856887    98.744064    99.242785    3.7262924    93.595899    40018.933 
   65000    397.68646   -275109.79            0   -273086.23   -279.50819    96.856887    98.744064    99.242785    3.6681105    100.21736    39986.726 
   66000    398.46806   -275129.22            0   -273101.68   -281.55288    96.856887    98.744064    99.242785    3.6038726    106.77419    39933.547 
   67000    398.87891   -275114.94            0   -273085.32   -285.25446    96.856887    98.744064    99.242785    3.4348647    113.12601    39813.701 
   68000    398.72053   -275118.42            0    -273089.6   -326.41948    96.856887    98.744064    99.242785    3.0750136    119.99186    39877.294 
   69000    400.95398   -275133.19            0      -273093    82.899147    96.856887    98.744064    99.242785    4.5038165    126.76531    39904.385 
   70000    401.30289   -275142.48            0   -273100.52    38.600156    96.856887    98.744064    99.242785    3.2328257    133.39739    39885.819 
   71000    399.09943   -275132.75            0   -273102.01    -252.6247    96.856887    98.744064    99.242785     3.527601    140.07277     39880.72 
   72000    399.02472   -275128.07            0    -273097.7   -375.05097    96.856887    98.744064    99.242785    3.4937343    146.64148    39846.489 
   73000    398.93211   -275134.92            0   -273105.02   -207.22717    96.856887    98.744064    99.242785    3.3121325    153.11311    39789.436 
   74000    402.28755   -275126.04            0   -273079.07   -186.24152    96.856887    98.744064    99.242785    3.6272622     159.9477    39826.978 
   75000    399.04566   -275150.02            0   -273119.55    -286.1581    96.856887    98.744064    99.242785    3.4514777    166.81282    39868.265 
   76000    398.73471   -275138.99            0    -273110.1    -386.5598    96.856887    98.744064    99.242785    3.3102391    173.42414    39847.532 
   77000    398.44537   -275136.84            0   -273109.42   -191.99936    96.856887    98.744064    99.242785    4.2102772    180.09919    39841.943 
   78000    401.21895   -275134.04            0   -273092.51   -410.68623    96.856887    98.744064    99.242785    4.6884928    186.62701    39804.875 
   79000    397.54167   -275151.09            0   -273128.27   -291.65723    96.856887    98.744064    99.242785    3.2486712    193.15075    39769.073 
   80000    396.18249   -275129.87            0   -273113.97    4.4361779    96.856887    98.744064    99.242785    3.7586318     199.9093     39781.95 
   81000    400.80827   -275140.48            0   -273101.04   -19.883827    96.856887    98.744064    99.242785    3.7096031    206.75021     39809.42 
   82000    399.26848   -275142.73            0   -273111.12   -575.13534    96.856887    98.744064    99.242785     3.770002    213.33792    39787.522 
   83000    399.19463   -275146.57            0   -273115.34   -319.47123    96.856887    98.744064    99.242785    3.6770902     219.9278    39766.945 
   84000    401.67644   -275128.17            0   -273084.31   -156.09549    96.856887    98.744064    99.242785    3.6249575    226.48386    39741.257 
   85000    400.28358   -275146.24            0   -273109.47   -303.61018    96.856887    98.744064    99.242785    3.5951261    233.01467    39712.357 
   86000    398.27656   -275132.72            0   -273106.16   -365.98996    96.856887    98.744064    99.242785    3.4880208    240.01641    39762.718 
   87000    399.84517   -275159.73            0   -273125.19   -351.56351    96.856887    98.744064    99.242785    4.3199498    246.92648    39795.206 
   88000    398.56926   -275151.48            0   -273123.43   -334.88348    96.856887    98.744064    99.242785    3.6070225    253.52146    39776.183 
   89000    398.62181   -275147.58            0   -273119.26   -341.89043    96.856887    98.744064    99.242785    3.8294646    260.21289     39772.54 
   90000    400.18105   -275158.14            0   -273121.89   -141.19132    96.856887    98.744064    99.242785    4.1745569     266.7324    39743.128 
   91000    397.95885   -275130.68            0   -273105.74   -24.398508    96.856887    98.744064    99.242785    3.7732788    273.25407    39715.146 
   92000    400.05928   -275143.35            0   -273107.72   -358.47434    96.856887    98.744064    99.242785    3.7350582    280.00089    39720.126 
   93000    398.58474   -275163.31            0   -273135.19   -246.73368    96.856887    98.744064    99.242785    3.7890725    286.81645    39734.084 
   94000    401.16607   -275157.37            0   -273116.11   -308.41875    96.856887    98.744064    99.242785    3.3353816    293.43526    39720.464 
   95000    398.90665   -275152.51            0   -273122.74   -310.60643    96.856887    98.744064    99.242785    3.9263303    300.25835    39734.189 
   96000    399.93528   -275145.47            0   -273110.47   -527.18872    96.856887    98.744064    99.242785    3.5823097    306.84192    39716.017 
   97000    400.32729   -275161.37            0   -273124.37   -313.78819    96.856887    98.744064    99.242785    3.6358724    313.36096    39690.166 
   98000    400.75714   -275178.84            0   -273139.66   -371.39953    96.856887    98.744064    99.242785    3.8381407    320.21612    39706.799 
   99000    397.81198   -275167.55            0   -273143.35   -333.94985    96.856887    98.744064    99.242785    3.3500844    326.96818    39709.952 
  100000    400.52313   -275161.76            0   -273123.76   -207.88856    96.856887    98.744064    99.242785    3.9112238     333.5325    39690.367 
  101000    400.47898   -275166.25            0   -273128.48   -358.29223    96.856887    98.744064    99.242785    3.3973407    340.16217    39678.917 
  102000    399.59545   -275151.01            0   -273117.74   -455.62191    96.856887    98.744064    99.242785     3.834067    346.75516    39663.455 
  103000    397.59767   -275159.58            0   -273136.47   -145.92706    96.856887    98.744064    99.242785     3.921468    353.17668    39629.089 
  104000    400.77055   -275158.55            0    -273119.3    -289.1255    96.856887    98.744064    99.242785    3.5648708     360.0711    39647.828 
  105000    399.62678   -275176.46            0   -273143.03    -437.6004    96.856887    98.744064    99.242785    3.8159821     366.8324    39651.248 
  106000     400.9726   -275154.15            0   -273113.87   -260.42024    96.856887    98.744064    99.242785    3.4528617    373.43713    39637.684 
  107000    400.07079   -275179.48            0   -273143.79   -355.42814    96.856887    98.744064    99.242785    3.7841855    380.06355    39626.626 
  108000    398.97611   -275176.59            0   -273146.47   -392.12071    96.856887    98.744064    99.242785    3.3921551    386.60053    39606.558 
  109000    400.14948   -275175.14            0   -273139.05   -564.13005    96.856887    98.744064    99.242785    3.6320247    392.95565    39568.636 
  110000    402.12704   -275174.39            0   -273128.23   -395.22761    96.856887    98.744064    99.242785    3.5455932    399.77537    39577.761 
  111000    399.89036   -275173.39            0   -273138.62   -351.03219    96.856887    98.744064    99.242785    3.6676801    406.56157    39583.101 
  112000     401.3123   -275167.48            0   -273125.48   -433.18785    96.856887    98.744064    99.242785    3.6208272    413.18813     39572.76 
  113000      399.995   -275171.93            0   -273136.63   -456.86713    96.856887    98.744064    99.242785    3.8371057    419.90602    39571.144 
  114000    400.46945   -275174.27            0   -273136.55   -492.26296    96.856887    98.744064    99.242785    4.2493209    426.41445     39549.94 
  115000     402.5034   -275160.55            0   -273112.48   -416.03697    96.856887    98.744064    99.242785    3.7483356    432.82743    39520.474 
  116000    396.24994    -275165.1            0   -273148.85   -279.61982    96.856887    98.744064    99.242785    3.4895828    439.69868    39532.909 
  117000     399.7685   -275168.26            0   -273134.11   -465.43392    96.856887    98.744064    99.242785     3.433912    446.47481    39536.344 
  118000    397.41957   -275174.65            0   -273152.45   -505.25626    96.856887    98.744064    99.242785    3.6796514    453.15124    39530.782 
  119000    400.40318   -275170.83            0   -273133.45   -283.35202    96.856887    98.744064    99.242785    3.8750886    459.71293    39515.325 
  120000    400.30024   -275185.78            0   -273148.92   -448.29401    96.856887    98.744064    99.242785    4.9996421    466.33526    39505.258 
  121000    399.96827   -275169.43            0   -273134.26   -611.42676    96.856887    98.744064    99.242785    3.6558057    472.82779     39484.45 
  122000    399.52732   -275186.53            0   -273153.61   -338.08073    96.856887    98.744064    99.242785    3.3579054    479.64077    39490.423 
  123000    398.66145   -275177.73            0   -273149.21   -336.75333    96.856887    98.744064    99.242785    3.5391154    486.44326    39495.195 
  124000    398.06758   -275186.92            0   -273161.43   -344.81888    96.856887    98.744064    99.242785    3.2407802    493.06491    39485.171 
  125000    399.18889   -275199.74            0   -273168.54    -436.8562    96.856887    98.744064    99.242785    3.6138479    499.60454    39468.759 
  126000    399.93534   -275201.35            0   -273166.35   -401.21967    96.856887    98.744064    99.242785     4.191565    506.18646    39455.903 
  127000    400.51436   -275185.72            0   -273147.78   -605.74689    96.856887    98.744064    99.242785     3.272463    512.61114    39431.114 
  128000    398.77236   -275188.82            0   -273159.74   -512.76358    96.856887    98.744064    99.242785    3.5327414    519.40658    39434.946 
  129000    396.32616   -275194.13            0   -273177.49   -729.40151    96.856887    98.744064    99.242785    3.3961676    526.19253    39437.797 
  130000    402.57331   -275198.02            0   -273149.59   -353.28334    96.856887    98.744064    99.242785    3.7143339    532.83917    39430.099 
  131000    398.69641   -275167.16            0   -273138.46    -285.2023    96.856887    98.744064    99.242785    3.8886187    539.44596    39419.514 
  132000    398.64719    -275193.8            0   -273165.35   -502.73094    96.856887    98.744064    99.242785    3.4157259    546.04933     39408.78 
  133000    399.91228   -275186.06            0   -273151.18   -532.86369    96.856887    98.744064    99.242785    3.4240729    552.47133    39385.215 
  134000    396.38192    -275186.2            0   -273169.28   -661.22132    96.856887    98.744064    99.242785    3.3968077    559.28786    39389.845 
  135000    399.38319    -275195.8            0   -273163.61   -341.44355    96.856887    98.744064    99.242785    3.7638123    566.09198    39393.342 
  136000    396.92867   -275181.22            0   -273161.52   -436.43055    96.856887    98.744064    99.242785    3.6116091    572.74374    39386.122 
  137000    399.37332   -275182.41            0   -273150.27   -393.38348    96.856887    98.744064    99.242785    3.3439307    579.39299    39378.744 
  138000    403.41377   -275187.75            0   -273135.05   -438.56877    96.856887    98.744064    99.242785     3.467347     585.9489    39365.112 
  139000    399.46052   -275183.49            0   -273150.91   -377.22187    96.856887    98.744064    99.242785    3.7238363      592.301    39338.103 
  140000     400.5827   -275199.51            0   -273161.21   -270.52849    96.856887    98.744064    99.242785    3.6326986    599.16686     39345.29 
  141000    401.22104   -275195.23            0   -273153.69   -386.19632    96.856887    98.744064    99.242785    4.1565992    606.02296    39351.535 
  142000    399.53885   -275197.66            0   -273164.67   -416.36153    96.856887    98.744064    99.242785    3.2860282     612.6109    39340.274 
  143000    400.73791   -275200.08            0   -273160.99   -452.23279    96.856887    98.744064    99.242785    3.6798554    619.28004    39334.271 
  144000    402.57585   -275201.62            0   -273153.18   -437.83739    96.856887    98.744064    99.242785     3.298918    625.92254     39326.58 
  145000    398.75931   -275201.09            0   -273172.07    -466.8448    96.856887    98.744064    99.242785    3.8217159    632.40627    39309.042 
  146000    402.68148    -275200.2            0   -273151.23   -619.06819    96.856887    98.744064    99.242785    3.2431384    639.22524    39312.352 
  147000    401.51278   -275222.48            0   -273179.45   -535.23746    96.856887    98.744064    99.242785    4.1288376    646.06298    39316.596 
  148000    400.21374   -275189.01            0   -273152.59   -602.07588    96.856887    98.744064    99.242785    3.3062464    652.71269    39309.289 
  149000    397.88669   -275197.57            0   -273172.99   -557.57564    96.856887    98.744064    99.242785    3.4977548    659.31171    39298.974 
  150000     401.8586   -275182.35            0   -273137.56   -572.92489    96.856887    98.744064    99.242785    3.6292448    665.90896    39288.629 
  151000    399.02575   -275202.06            0   -273171.69   -545.87265    96.856887    98.744064    99.242785    4.3661382    672.45417    39275.318 
  152000    398.32507   -275199.34            0   -273172.54   -544.57641    96.856887    98.744064    99.242785    4.2916965    679.24737     39276.48 
  153000    402.93899      -275192            0   -273141.71   -714.11237    96.856887    98.744064    99.242785        4.013    686.06347    39278.799 
  154000    396.49423   -275205.41            0   -273187.92   -568.79273    96.856887    98.744064    99.242785    3.7102739    692.76547    39274.473 
  155000    400.29829   -275209.65            0   -273172.81   -641.98476    96.856887    98.744064    99.242785    3.5137484     699.3507    39263.546 
  156000    397.43383   -275188.25            0   -273165.97   -422.37275    96.856887    98.744064    99.242785    3.6745991    705.95918    39253.995 
  157000    399.69133   -275200.36            0    -273166.6   -647.43094    96.856887    98.744064    99.242785    4.2732925    712.43283    39237.072 
  158000    399.85705   -275207.78            0   -273173.18   -440.71378    96.856887    98.744064    99.242785    3.2807926    719.16782      39234.6 
  159000    401.15839   -275199.38            0   -273158.15   -509.48371    96.856887    98.744064    99.242785    3.1821492    725.99359    39236.956 
  160000    399.55413   -275210.44            0   -273177.38    -438.1121    96.856887    98.744064    99.242785     3.635605    732.69815    39232.655 
  161000    399.82449   -275205.81            0   -273171.37   -509.37398    96.856887    98.744064    99.242785    3.6792575    739.32983    39224.445 
  162000     400.1543   -275196.51            0    -273160.4   -454.44831    96.856887    98.744064    99.242785     3.672764    745.86309    39211.088 
  163000    402.18104   -275210.95            0   -273164.52   -343.35141    96.856887    98.744064    99.242785    3.8588386    752.18016    39186.589 
  164000    399.61897   -275225.58            0   -273192.19   -723.74179    96.856887    98.744064    99.242785    3.9685595    758.97008    39186.823 
  165000    399.49242   -275211.65            0    -273178.9   -797.53126    96.856887    98.744064    99.242785     3.815804    765.74706    39186.274 
  166000    399.84943   -275217.23            0   -273182.66   -283.79909    96.856887    98.744064    99.242785     3.722208    772.42332    39180.507 
  167000    397.64745   -275222.95            0   -273199.59   -457.40897    96.856887    98.744064    99.242785    4.2722514    779.07109    39173.293 
  168000    399.27629    -275212.4            0   -273180.76   -459.05193    96.856887    98.744064    99.242785    3.3769463    785.63636    39161.975 
  169000    402.55578   -275217.08            0   -273168.75   -504.64476    96.856887    98.744064    99.242785    3.4957359    792.04047    39142.773 
  170000    402.38409   -275191.01            0   -273143.54   -482.31485    96.856887    98.744064    99.242785    3.7865273    798.88372    39145.302 
  171000    398.60499   -275217.33            0    -273189.1   -510.70458    96.856887    98.744064    99.242785     3.886462    805.69673    39146.207 
  172000    399.41255   -275221.85            0   -273189.51   -599.93377    96.856887    98.744064    99.242785    3.3884788    812.47212    39145.173 
  173000    399.94564   -275198.75            0   -273163.69   -614.73042    96.856887    98.744064    99.242785    3.9118269    819.10517    39137.245 
  174000    403.31877   -275206.69            0   -273154.47   -576.00094    96.856887    98.744064    99.242785    3.9424804    825.65654    39125.466 
  175000    400.64338   -275221.48            0   -273182.87   -453.20027    96.856887    98.744064    99.242785    3.4801478    832.11104    39109.219 
  176000    399.65735   -275203.03            0   -273169.44   -493.19686    96.856887    98.744064    99.242785    3.3503476    838.93238    39110.229 
  177000    399.69983   -275227.29            0   -273193.49   -556.36977    96.856887    98.744064    99.242785    3.5219985    845.94515    39119.967 
  178000    398.65456   -275207.86            0   -273179.38   -525.58741    96.856887    98.744064    99.242785    3.9346859    852.67814     39116.61 
  179000    400.17489   -275218.22            0      -273182   -590.96521    96.856887    98.744064    99.242785    3.6311764    859.27563    39107.033 
  180000    403.01174    -275219.3            0   -273168.64   -522.90998    96.856887    98.744064    99.242785    3.6662916    865.89205    39098.356 
  181000    397.98855   -275228.39            0    -273203.3   -487.26636    96.856887    98.744064    99.242785    3.6353199    872.33826    39082.086 
  182000    398.44135   -275211.22            0   -273183.83   -585.93583    96.856887    98.744064    99.242785    3.5989524    879.18189    39083.631 
  183000    400.71496   -275207.26            0   -273168.29   -430.87073    96.856887    98.744064    99.242785    3.5600653    886.00943    39084.341 
  184000    400.43669   -275214.21            0   -273176.66   -516.37684    96.856887    98.744064    99.242785     3.924248    892.73364    39080.414 
  185000    398.12819   -275225.59            0   -273199.78   -528.11277    96.856887    98.744064    99.242785    5.0610235    899.39005    39073.501 
  186000     400.2287   -275204.78            0   -273168.29   -543.27808    96.856887    98.744064    99.242785    3.7753379    905.97446    39063.487 
  187000    398.32871    -275221.4            0   -273194.57   -688.14337    96.856887    98.744064    99.242785    3.2666294    912.46384    39049.456 
  188000    401.62318   -275220.45            0   -273176.86   -694.65484    96.856887    98.744064    99.242785    3.4955884    919.25809    39048.485 
  189000      400.871   -275227.38            0   -273187.62   -493.76722    96.856887    98.744064    99.242785    3.4422701    926.14981     39051.54 
  190000    400.78416   -275222.29            0   -273182.97   -594.92303    96.856887    98.744064    99.242785    3.5996226    932.81135    39044.818 
  191000    400.64898   -275208.34            0   -273169.71   -458.59276    96.856887    98.744064    99.242785    3.3996013    939.42006    39035.902 
  192000     400.3918   -275225.65            0   -273188.33   -444.29093    96.856887    98.744064    99.242785    3.4738249    946.06278    39028.421 
  193000    398.49173   -275222.59            0   -273194.93   -519.93678    96.856887    98.744064    99.242785    4.1461506     952.4957    39012.359 
  194000    401.25966    -275229.2            0   -273187.46   -524.64396    96.856887    98.744064    99.242785      3.84653    959.33209    39012.838 
  195000    400.16047   -275232.01            0   -273195.87   -756.45323    96.856887    98.744064    99.242785    3.4777492    966.19866    39014.436 
  196000    401.04079   -275219.88            0   -273179.26   -680.38857    96.856887    98.744064    99.242785     3.408854    972.82248    39006.184 
  197000    399.23314      -275218            0   -273186.57   -655.68622    96.856887    98.744064    99.242785    4.1441144    979.41687    38996.782 
  198000    399.28814   -275230.18            0   -273198.48   -707.90361    96.856887    98.744064    99.242785    3.5497525    985.99831    38986.906 
  199000    401.00015   -275220.95            0   -273180.53   -666.47453    96.856887    98.744064    99.242785    3.7475921    992.50065    38973.968 
  200000     402.1214   -275219.12            0      -273173   -446.65745    96.856887    98.744064    99.242785    3.2897659    999.31986    38973.475 
  201000     401.5486   -275212.95            0   -273169.74   -413.95129    96.856887    98.744064    99.242785    3.7231451    1006.2084    38975.582 
  202000    400.37438   -275225.84            0    -273188.6   -514.28193    96.856887    98.744064    99.242785     3.182021    1012.7501    38964.228 
  203000    398.78298   -275220.52            0   -273191.38     -465.039    96.856887    98.744064    99.242785     3.690663    1019.3243    38954.177 
  204000    399.10298    -275223.3            0   -273192.53   -511.18758    96.856887    98.744064    99.242785    3.5992469    1025.9731    38947.003 
  205000    400.05009   -275222.69            0   -273187.11   -609.25379    96.856887    98.744064    99.242785    3.2744328    1032.3782    38930.648 
  206000    400.27009   -275217.39            0   -273180.69   -604.86181    96.856887    98.744064    99.242785     3.493372    1039.1722    38928.991 
  207000    399.56142      -275227            0    -273193.9   -339.24088    96.856887    98.744064    99.242785    3.5109933    1046.0387    38929.963 
  208000    400.67005   -275213.81            0   -273175.08   -334.85829    96.856887    98.744064    99.242785    4.1406726     1052.693     38922.99 
  209000    401.40781   -275229.74            0   -273187.24   -680.34455    96.856887    98.744064    99.242785    3.7406854    1059.3249      38915.2 
  210000    402.50975   -275218.62            0   -273170.52   -391.65443    96.856887    98.744064    99.242785    3.5288429    1065.9163    38905.943 
  211000     401.4512    -275243.4            0   -273200.69   -502.92036    96.856887    98.744064    99.242785     3.275405      1072.37    38891.729 
  212000    401.01461   -275225.29            0    -273184.8   -626.30189    96.856887    98.744064    99.242785    3.4980191    1079.1556     38889.57 
  213000    401.62486   -275236.43            0   -273192.84   -572.19562    96.856887    98.744064    99.242785    3.9131199    1085.9594    38888.005 
  214000    400.06533   -275226.89            0   -273191.23   -557.49644    96.856887    98.744064    99.242785    3.3686492    1092.6282    38881.574 
  215000    399.49786   -275223.57            0   -273190.79   -627.77659    96.856887    98.744064    99.242785    3.3066359    1099.2308    38872.797 
  216000    398.93623   -275246.41            0   -273216.49    -631.6124    96.856887    98.744064    99.242785    3.9602475    1105.7579    38861.395 
  217000    401.12065   -275235.99            0   -273194.95   -586.11765    96.856887    98.744064    99.242785    3.8499302    1112.1505    38845.353 
  218000    398.71469   -275234.67            0   -273205.88    -405.8956    96.856887    98.744064    99.242785    4.8318867     1118.934    38842.995 
  219000    403.96318    -275224.2            0   -273168.71   -691.98393    96.856887    98.744064    99.242785    3.3208877     1125.757    38841.946 
  220000    399.96359   -275239.85            0    -273204.7   -547.33678    96.856887    98.744064    99.242785    3.6936521    1132.4636     38836.84 
  221000    402.99352   -275236.26            0    -273185.7   -597.20706    96.856887    98.744064    99.242785     3.284579    1139.0344    38827.085 
  222000    398.44501   -275228.63            0   -273201.21    -673.4973    96.856887    98.744064    99.242785    3.9578688    1145.5937    38816.978 
  223000    402.47726   -275239.07            0   -273191.13   -642.15545    96.856887    98.744064    99.242785    3.2905917    1152.0737     38804.24 
  224000    399.40868   -275234.15            0   -273201.83   -493.04762    96.856887    98.744064    99.242785    3.5366504    1158.8455    38801.344 
  225000    398.52166   -275219.42            0   -273191.62   -757.22981    96.856887    98.744064    99.242785    3.8822143     1165.745    38802.655 
  226000    400.73603   -275230.84            0   -273191.76   -534.57848    96.856887    98.744064    99.242785    3.9745867    1172.4361    38796.978 
  227000    399.84622    -275235.9            0   -273201.35   -630.40776    96.856887    98.744064    99.242785    3.4837602    1179.0044    38787.248 
  228000    401.77276   -275238.91            0   -273194.56   -657.41694    96.856887    98.744064    99.242785    3.7031073    1185.5997    38778.436 
  229000    399.51169   -275261.47            0   -273228.63   -641.93443    96.856887    98.744064    99.242785    3.6560058    1192.0233    38764.064 
  230000     401.9543    -275244.1            0   -273198.82   -678.71231    96.856887    98.744064    99.242785    3.3053129    1198.7635    38760.019 
  231000    399.81769   -275228.87            0   -273194.47    -473.7743    96.856887    98.744064    99.242785    3.2254304    1205.5985    38758.993 
  232000     402.1691   -275236.76            0   -273190.39    -851.5481    96.856887    98.744064    99.242785    3.6093585    1212.2927    38753.402 
  233000    402.14192   -275259.72            0   -273213.49   -538.95136    96.856887    98.744064    99.242785    3.5386032     1218.976    38747.452 
  234000    397.99912   -275226.04            0   -273200.89   -688.79586    96.856887    98.744064    99.242785     3.932831    1225.5309    38737.435 
  235000    402.57957   -275242.98            0   -273194.52    -603.6604    96.856887    98.744064    99.242785    3.9832927    1231.9446    38723.014 
  236000    401.28984   -275235.02            0   -273193.13   -599.22147    96.856887    98.744064    99.242785    3.4002901    1238.6341    38717.305 
  237000    400.74745   -275235.61            0   -273196.48   -466.31509    96.856887    98.744064    99.242785    3.5951537    1245.5204    38717.702 
  238000    399.73383   -275242.04            0   -273208.06   -857.50367    96.856887    98.744064    99.242785    3.7346979    1252.1923    38711.393 
  239000    399.31955   -275244.36            0    -273212.5    -763.8383    96.856887    98.744064    99.242785    3.6903135    1258.8078    38703.346 
  240000    401.45135   -275226.52            0    -273183.8   -722.29183    96.856887    98.744064    99.242785     4.191218    1265.3408     38692.79 
  241000    399.80361   -275243.68            0   -273209.35   -553.47735    96.856887    98.744064    99.242785    3.5835895    1271.8877    38682.701 
  242000    399.12199   -275240.87            0   -273210.01   -564.68033    96.856887    98.744064    99.242785    3.6429059    1278.6896    38680.359 
  243000    399.27232    -275247.6            0   -273215.97   -744.48757    96.856887    98.744064    99.242785    3.7253112    1285.4858    38677.804 
  244000     402.1749   -275247.68            0   -273201.28   -704.00503    96.856887    98.744064    99.242785    3.6208974    1292.1992    38672.724 
  245000    399.32909   -275233.63            0   -273201.71   -631.24661    96.856887    98.744064    99.242785    3.8705149    1298.7832    38663.776 
  246000    402.37532   -275251.68            0   -273204.26   -646.78032    96.856887    98.744064    99.242785    3.5398244    1305.3352    38653.905 
  247000    399.01556   -275242.95            0   -273212.63    -655.6236    96.856887    98.744064    99.242785    3.4488337    1311.8399    38642.675 
  248000    396.34653   -275234.05            0   -273217.31    -951.1422    96.856887    98.744064    99.242785    3.6178686    1318.5227    38636.711 
  249000    402.30183   -275243.17            0   -273196.13   -707.31432    96.856887    98.744064    99.242785    3.8119644    1325.3998    38636.402 
  250000    399.48562    -275244.9            0   -273212.19   -659.84636    96.856887    98.744064    99.242785    3.2158804    1332.0756    38630.192 
  251000     400.0072   -275237.23            0   -273201.86   -360.36739    96.856887    98.744064    99.242785    3.4462762    1338.6132     38619.99 
  252000    402.08323   -275239.21            0   -273193.28   -599.61866    96.856887    98.744064    99.242785    3.4604023    1345.1761    38610.551 
  253000    399.23987   -275236.13            0   -273204.67   -659.73532    96.856887    98.744064    99.242785    4.5937189    1351.5896    38596.872 
  254000    400.99324   -275243.87            0   -273203.49    -386.2226    96.856887    98.744064    99.242785    4.5139979    1358.3454    38592.991 
  255000    398.45359   -275249.94            0   -273222.48   -657.74051    96.856887    98.744064    99.242785    3.9452489    1365.1958    38591.755 
  256000     401.1335   -275238.51            0   -273197.42   -690.97738    96.856887    98.744064    99.242785    3.8169707    1371.9083    38586.587 
  257000    398.67864   -275241.25            0   -273212.65   -733.89546    96.856887    98.744064    99.242785    3.9810351    1378.5048    38578.157 
  258000    401.18074    -275255.4            0   -273214.06   -619.76866    96.856887    98.744064    99.242785    3.3370397    1385.1483    38571.052 
  259000    399.89948   -275235.35            0   -273200.53   -754.83716    96.856887    98.744064    99.242785    3.5370901    1391.6006    38558.657 
  260000    400.07086   -275253.98            0   -273218.29   -690.66614    96.856887    98.744064    99.242785    3.9402468    1398.2699    38552.299 
  261000    401.96656   -275233.31            0   -273187.97   -726.50787    96.856887    98.744064    99.242785    3.5168402    1405.0553    38549.123 
  262000    400.33694   -275243.86            0   -273206.82   -693.89237    96.856887    98.744064    99.242785    4.4440812    1411.7174    38542.548 
  263000     400.0579   -275235.84            0   -273200.22   -711.80343    96.856887    98.744064    99.242785    3.5347705    1418.3005    38533.827 
  264000    400.19343   -275252.97            0   -273216.66   -918.18758    96.856887    98.744064    99.242785    3.7982845    1424.8648    38524.614 
  265000    398.76678   -275241.85            0    -273212.8   -558.39503    96.856887    98.744064    99.242785    3.7740258    1431.2662    38511.047 
  266000    402.61522   -275253.33            0    -273204.7   -736.40735    96.856887    98.744064    99.242785    3.4073159    1438.0201    38506.981 
  267000    399.90076   -275241.86            0   -273207.04   -653.83377    96.856887    98.744064    99.242785    4.0554206    1444.9726    38508.187 
  268000    400.56687   -275236.78            0   -273198.57   -639.08841    96.856887    98.744064    99.242785    3.6106562    1451.7556     38504.82 
  269000    398.64394   -275232.53            0    -273204.1   -784.02843    96.856887    98.744064    99.242785    3.5564886    1458.3468    38496.359 
  270000    401.74034   -275252.81            0   -273208.63   -851.00281    96.856887    98.744064    99.242785    3.6374268    1464.9702    38488.763 
  271000    400.95656   -275229.49            0    -273189.3   -541.43474    96.856887    98.744064    99.242785    3.9448965    1471.4453    38477.295 
  272000    398.02654   -275253.52            0   -273228.23   -867.62379    96.856887    98.744064    99.242785    4.4483145    1478.0619    38469.558 
  273000    402.41436   -275245.64            0   -273198.02   -755.16451    96.856887    98.744064    99.242785    3.6312729    1484.7939    38464.817 
  274000    399.14675   -275257.83            0   -273226.84   -567.14681    96.856887    98.744064    99.242785    3.9444711    1491.5822    38461.513 
  275000    397.41308   -275241.58            0   -273219.41   -661.58941    96.856887    98.744064    99.242785    3.8221455    1498.1303    38452.012 
  276000    401.30588   -275256.16            0   -273214.19   -792.81981    96.856887    98.744064    99.242785    4.1643272    1504.7815    38445.169 
  277000    399.87347   -275241.18            0   -273206.49   -613.37117    96.856887    98.744064    99.242785    3.9810495    1511.3069    38435.131 
  278000    399.22326   -275248.76            0   -273217.38   -629.10987    96.856887    98.744064    99.242785    3.5831769    1518.0114    38429.656 
  279000    400.54428   -275249.44            0   -273211.34    -704.2578    96.856887    98.744064    99.242785    3.6383342    1524.8214    38426.832 
  280000    398.42351   -275244.55            0   -273217.24    -656.1282    96.856887    98.744064    99.242785     3.763265    1531.4676    38419.861 
  281000    398.14452   -275259.54            0   -273233.65   -745.09521    96.856887    98.744064    99.242785    3.5875717    1537.9774    38409.487 
  282000    397.54152   -275249.21            0   -273226.39   -436.92661    96.856887    98.744064    99.242785     3.462726    1544.5496    38400.699 
  283000    399.92114   -275243.93            0   -273209.01   -467.01035    96.856887    98.744064    99.242785    3.5110016     1551.037    38389.829 
  284000    402.17302   -275237.85            0   -273191.46   -450.27003    96.856887    98.744064    99.242785    3.3503118    1557.7172    38383.749 
  285000     400.3283   -275245.94            0   -273208.94   -781.88606    96.856887    98.744064    99.242785    4.0757791    1564.6233    38383.205 
  286000    399.24514   -275248.57            0   -273217.08   -624.54815    96.856887    98.744064    99.242785    3.7129892    1571.2538    38375.877 
  287000    397.30845    -275262.2            0   -273240.57   -432.18586    96.856887    98.744064    99.242785    4.1148259    1577.9448    38370.025 
  288000    399.09858   -275239.07            0   -273208.33   -453.85104    96.856887    98.744064    99.242785    3.7305031    1584.5663    38362.484 
  289000     400.8496   -275253.56            0    -273213.9    -517.7439    96.856887    98.744064    99.242785    3.6980015    1590.9632    38349.537 
  290000    403.26439   -275258.75            0   -273206.81   -632.59382    96.856887    98.744064    99.242785    3.8082634    1597.6366    38343.279 
  291000    395.82818   -275258.06            0   -273243.96   -656.72412    96.856887    98.744064    99.242785    3.7029122    1604.5275    38342.214 
  292000    400.15031   -275261.81            0   -273225.72   -562.63574    96.856887    98.744064    99.242785    3.6547393    1611.2414    38336.893 
  293000    398.11971   -275239.56            0   -273213.79   -649.02399    96.856887    98.744064    99.242785    3.2752754    1617.7874    38327.581 
  294000    401.60913   -275257.13            0   -273213.61   -451.96974    96.856887    98.744064    99.242785     4.149579    1624.4179    38320.284 
  295000    399.46232   -275248.05            0   -273215.45   -739.43644    96.856887    98.744064    99.242785    3.0938234    1630.8525    38308.393 
  296000     399.2009   -275251.42            0   -273220.15   -755.86434    96.856887    98.744064    99.242785    3.4852476    1637.5059    38301.663 
  297000    398.97315   -275243.46            0   -273213.35   -711.97324    96.856887    98.744064    99.242785    3.8343671    1644.3391    38299.121 
  298000    398.98412   -275245.21            0   -273215.05   -620.63492    96.856887    98.744064    99.242785    3.4500069    1651.1082    38295.058 
  299000    396.88452   -275257.81            0   -273238.33   -499.50141    96.856887    98.744064    99.242785    3.5997372    1657.6569    38285.884 
  300000    400.14013   -275257.28            0   -273221.24   -601.58996    96.856887    98.744064    99.242785    3.6605184    1664.2799    38278.437 
  301000    397.44642   -275264.89            0   -273242.56   -418.41584    96.856887    98.744064    99.242785    3.6547176    1670.7095     38266.57 
  302000    400.66943   -275246.09            0   -273207.36   -663.32529    96.856887    98.744064    99.242785    3.5904111    1677.3174    38258.811 
  303000    400.41775   -275256.45            0      -273219   -813.74216    96.856887    98.744064    99.242785    3.9601191    1684.2027    38257.364 
  304000    397.45847   -275246.29            0    -273223.9   -674.79379    96.856887    98.744064    99.242785    3.8451167    1690.8834    38251.244 
  305000    400.33393   -275253.12            0   -273216.09   -740.45102    96.856887    98.744064    99.242785    3.4742345    1697.4549    38242.661 
  306000    399.96183   -275265.36            0   -273230.22   -657.78614    96.856887    98.744064    99.242785    3.7783497    1704.0836    38235.375 
  307000    400.40608   -275256.11            0   -273218.71   -837.06425    96.856887    98.744064    99.242785     3.658525    1710.5192    38223.781 
  308000     401.5984   -275251.21            0   -273207.75   -821.91779    96.856887    98.744064    99.242785    3.3180198    1717.2262    38218.268 
  309000    399.51318   -275254.59            0   -273221.74   -884.71774    96.856887    98.744064    99.242785    3.5164409    1724.0577    38215.504 
  310000    398.77437   -275248.56            0   -273219.46    -478.6766    96.856887    98.744064    99.242785    4.0397609    1730.8631    38212.132 
  311000    395.98608   -275237.32            0   -273222.42   -618.94183    96.856887    98.744064    99.242785    3.9015863    1737.3074    38200.793 
  312000     398.6357   -275280.47            0   -273252.09   -792.55395    96.856887    98.744064    99.242785    3.6686315    1743.9813    38194.521 
  313000    402.72456   -275255.31            0   -273206.12   -415.12509    96.856887    98.744064    99.242785    3.2919923    1750.4206    38183.128 
  314000    399.68264    -275258.9            0   -273225.18   -754.94701    96.856887    98.744064    99.242785    3.7391145    1757.1335    38177.719 
  315000    399.53087   -275259.26            0   -273226.32   -603.51564    96.856887    98.744064    99.242785    3.0997277    1763.9799    38175.187 
  316000    400.04541   -275250.57            0   -273215.01   -975.34961    96.856887    98.744064    99.242785    3.9727422    1770.7958    38171.967 
  317000    399.69288   -275245.28            0   -273211.51   -766.13055    96.856887    98.744064    99.242785    3.3068908    1777.3971    38164.111 
  318000    399.88443   -275243.29            0   -273208.55    -669.3756    96.856887    98.744064    99.242785    3.4665018    1783.9829    38155.932 
  319000    398.75971   -275267.71            0    -273238.7    -886.6349    96.856887    98.744064    99.242785    3.8571683    1790.4281    38144.772 
  320000    399.27123   -275255.94            0   -273224.32   -577.40743    96.856887    98.744064    99.242785    3.7203831    1797.0294    38136.957 
  321000    402.56677   -275235.44            0   -273187.05   -827.52597    96.856887    98.744064    99.242785    3.3909589    1803.8486    38133.758 
  322000    401.98878   -275257.93            0   -273212.49   -551.70143    96.856887    98.744064    99.242785    3.7435291    1810.6668    38130.513 
  323000    400.84578   -275255.34            0    -273215.7    -857.1596    96.856887    98.744064    99.242785    3.6753803    1817.1876    38121.002 
  324000    399.84925   -275276.28            0   -273241.72   -903.40327    96.856887    98.744064    99.242785    3.8542061    1823.8604    38114.688 
  325000    400.85926   -275265.59            0   -273225.89   -553.37398    96.856887    98.744064    99.242785    3.4011232    1830.2747    38102.992 
  326000    398.72853   -275260.59            0   -273231.73   -687.33478    96.856887    98.744064    99.242785    3.9162844     1836.898    38095.667 
  327000    398.02759      -275260            0   -273234.71    -551.9396    96.856887    98.744064    99.242785    3.4362649    1843.7021    38092.084 
  328000    402.03733   -275277.56            0   -273231.87   -636.89823    96.856887    98.744064    99.242785    4.4178421     1850.513    38088.617 
  329000    402.89163   -275252.53            0   -273202.49    -769.7411    96.856887    98.744064    99.242785    3.5940276    1857.0184    38078.861 
  330000    398.82907   -275253.77            0    -273224.4   -608.46127    96.856887    98.744064    99.242785    4.1364628    1863.7045     38072.82 
  331000    401.48052   -275264.13            0   -273221.27   -562.97331    96.856887    98.744064    99.242785    3.4754892    1870.1338    38061.549 
  332000    404.71855   -275257.52            0   -273198.18   -623.08462    96.856887    98.744064    99.242785    3.5934574    1876.8153    38055.425 
  333000     397.7539   -275264.28            0   -273240.38   -674.38098    96.856887    98.744064    99.242785    3.6985382    1883.6225    38051.836 
  334000    398.02185   -275261.49            0   -273236.23   -886.51712    96.856887    98.744064    99.242785    3.5108734    1890.4211    38048.053 
  335000    399.11693   -275243.03            0   -273212.19   -851.24521    96.856887    98.744064    99.242785    3.7372463    1896.8857     38037.55 
  336000    399.71684   -275269.28            0   -273235.39    -585.0058    96.856887    98.744064    99.242785    3.5793266    1903.5695    38031.455 
  337000    401.76171   -275245.93            0   -273201.63   -496.09212    96.856887    98.744064    99.242785    3.5621113    1909.9496    38019.311 
  338000     398.3094   -275271.76            0   -273245.03   -963.78219    96.856887    98.744064    99.242785    3.2064587      1916.53    38011.179 
  339000    398.09731   -275269.96            0   -273244.31   -898.42413    96.856887    98.744064    99.242785    3.4448016    1923.3627    38008.044 
  340000    398.84924   -275259.54            0   -273230.06   -643.40021    96.856887    98.744064    99.242785     3.431011    1930.2449    38005.857 
  341000    401.30714   -275271.92            0   -273229.94   -799.45031    96.856887    98.744064    99.242785    3.6565978    1936.7601    37996.437 
  342000    398.53703   -275261.26            0   -273233.37   -755.48169    96.856887    98.744064    99.242785     3.699488    1943.5185    37991.794 
  343000    400.00987   -275273.33            0   -273237.95   -620.22925    96.856887    98.744064    99.242785    3.0920498    1949.9035     37979.86 
  344000    398.50441   -275280.77            0   -273253.05   -841.05725    96.856887    98.744064    99.242785    3.9831249     1956.434     37970.79 
  345000    402.00233   -275269.12            0    -273223.6   -996.33796    96.856887    98.744064    99.242785    3.2937586    1963.1922    37966.141 
  346000    399.29557   -275260.44            0    -273228.7    -764.0608    96.856887    98.744064    99.242785    3.7876401    1970.0754    37963.886 
  347000    401.33066   -275263.97            0   -273221.87   -878.12774    96.856887    98.744064    99.242785    3.3376617    1976.5271    37953.313 
  348000    398.42548   -275275.22            0   -273247.91   -823.25998    96.856887    98.744064    99.242785    3.2938342    1983.1981    37946.966 
  349000    400.33903   -275264.68            0   -273227.62   -945.24321    96.856887    98.744064    99.242785    3.7642875    1989.6086    37935.647 
  350000    399.98599   -275271.49            0   -273236.24   -751.49128    96.856887    98.744064    99.242785    3.7248135    1996.2139    37928.065 
  351000    400.12633   -275267.98            0   -273232.01   -668.57745    96.856887    98.744064    99.242785    3.4161594    2003.0025    37923.957 
  352000    398.47823    -275275.7            0   -273248.12   -802.86733    96.856887    98.744064    99.242785    3.8034935    2009.8865    37921.633 
  353000    401.25504    -275276.9            0   -273235.18   -799.31731    96.856887    98.744064    99.242785    3.6143242    2016.3205    37910.818 
  354000    402.92394   -275260.16            0   -273209.95   -739.91678    96.856887    98.744064    99.242785    3.4058093    2023.0012    37904.654 
  355000    399.41541   -275276.53            0   -273244.17   -911.50118    96.856887    98.744064    99.242785    3.4460039    2029.4112    37893.432 
  356000    399.63203   -275265.61            0   -273232.15    -832.0392    96.856887    98.744064    99.242785    3.5254401    2035.8899    37883.521 
  357000    398.62052   -275264.32            0   -273236.01   -791.86473    96.856887    98.744064    99.242785    3.8277755    2042.9395    37884.217 
  358000    400.31842   -275263.02            0   -273226.07   -914.63893    96.856887    98.744064    99.242785    3.9074885    2049.8001    37881.371 
  359000    396.55865   -275267.32            0    -273249.5   -860.97853    96.856887    98.744064    99.242785    4.5743134    2056.2662    37871.233 
  360000    398.98131   -275273.08            0   -273242.93   -662.51354    96.856887    98.744064    99.242785    3.7276259    2062.9917    37865.879 
  361000    402.61057   -275259.45            0   -273210.84   -959.86002    96.856887    98.744064    99.242785    3.4719368    2069.3994    37854.706 
  362000    399.90875   -275279.38            0   -273244.52   -717.40904    96.856887    98.744064    99.242785       3.7472    2075.9593    37846.335 
  363000    399.19649   -275281.66            0   -273250.42   -787.89628    96.856887    98.744064    99.242785    3.5923409    2082.8266    37843.562 
  364000    402.60378   -275259.59            0   -273211.02   -672.06899    96.856887    98.744064    99.242785    3.7878713    2089.6311    37839.626 
  365000    398.52389   -275272.14            0   -273244.32   -613.17343    96.856887    98.744064    99.242785    4.1190799    2096.0353    37828.446 
  366000    398.89145   -275271.29            0    -273241.6   -621.20486    96.856887    98.744064    99.242785    3.5040975    2102.7798     37823.42 
  367000    400.70389      -275272            0   -273233.09   -915.87804    96.856887    98.744064    99.242785    3.8476189    2109.2043    37812.644 
  368000    400.45733   -275276.58            0   -273238.93   -780.08732    96.856887    98.744064    99.242785    3.4828004    2115.7307    37803.716 
  369000    398.36741   -275265.95            0   -273238.92   -873.44346    96.856887    98.744064    99.242785    3.3102755    2122.6116    37801.117 
  370000    401.82538   -275276.04            0   -273231.43   -531.90767    96.856887    98.744064    99.242785    3.2482868     2129.441    37797.577 
  371000    397.02397   -275267.19            0      -273247   -689.22856    96.856887    98.744064    99.242785    3.4205878    2135.9242    37787.892 
  372000    402.61608   -275269.38            0   -273220.74   -835.28077    96.856887    98.744064    99.242785    3.5200672    2142.5841    37781.343 
  373000    400.88966    -275280.4            0   -273240.54   -750.78911    96.856887    98.744064    99.242785    3.6375421    2149.0229    37770.907 
  374000    399.56916   -275268.16            0   -273235.02    -937.0051    96.856887    98.744064    99.242785    3.5112853    2155.6161    37763.201 
  375000    397.94303   -275286.68            0   -273261.81   -815.89787    96.856887    98.744064    99.242785    3.3475889    2162.4161    37759.112 
  376000    397.21238    -275253.5            0   -273232.35   -801.73613    96.856887    98.744064    99.242785    3.8100387    2169.3617    37757.541 
  377000    396.57308   -275277.35            0   -273259.46   -611.89309    96.856887    98.744064    99.242785    3.1937277    2175.8254    37747.576 
  378000    397.66416    -275262.1            0   -273238.65   -684.41637    96.856887    98.744064    99.242785    3.3457854    2182.5446    37742.051 
  379000    397.66754   -275285.98            0   -273262.52   -638.62661    96.856887    98.744064    99.242785    3.1017151    2189.0573    37732.961 
  380000     399.9583   -275286.61            0   -273251.49   -748.97326    96.856887    98.744064    99.242785    3.5632567    2195.5783    37724.027 
  381000    396.89377   -275270.39            0   -273250.87   -920.73596    96.856887    98.744064    99.242785    3.3134316    2202.3882    37720.057 
  382000    403.32149   -275273.66            0   -273221.43   -692.41171    96.856887    98.744064    99.242785    3.5247461    2209.3419    37718.524 
  383000    398.82099   -275268.27            0   -273238.94   -701.88336    96.856887    98.744064    99.242785    3.4937666    2215.7767    37708.128 
  384000    400.36762   -275265.73            0   -273228.53   -680.89769    96.856887    98.744064    99.242785    3.6697493    2222.4917    37702.509 
  385000    398.78584    -275264.7            0   -273235.54   -762.59197    96.856887    98.744064    99.242785    3.2843592     2228.902    37691.731 
  386000    397.35304   -275281.39            0   -273259.53   -716.53932    96.856887    98.744064    99.242785    4.2567449    2235.4456    37683.225 
  387000    398.70384   -275270.35            0   -273241.61   -815.01255    96.856887    98.744064    99.242785    3.5407618    2242.2232    37678.665 
  388000    398.76219   -275263.18            0   -273234.15   -807.89782    96.856887    98.744064    99.242785    3.3806082    2249.0683     37675.22 
  389000    398.74165   -275285.84            0   -273256.91   -909.87074    96.856887    98.744064    99.242785    3.2283685     2255.558    37665.822 
  390000    399.56164   -275276.54            0   -273243.44   -840.03283    96.856887    98.744064    99.242785    3.6208078    2262.2316    37659.502 
  391000    398.30747   -275274.32            0   -273247.61   -862.58445    96.856887    98.744064    99.242785    4.1087555    2268.6755    37649.369 
  392000    399.06732   -275269.62            0   -273239.03   -686.27169    96.856887    98.744064    99.242785    3.4484058    2275.1529    37639.811 
  393000    397.12112   -275285.96            0   -273265.28   -705.31256    96.856887    98.744064    99.242785    3.6269246    2282.0712    37637.541 
  394000    399.52111   -275263.75            0   -273230.86   -653.08475    96.856887    98.744064    99.242785    3.7285924    2288.9041    37633.843 
  395000    400.46002   -275280.17            0    -273242.5   -935.41313    96.856887    98.744064    99.242785    3.9483185    2295.4055     37624.69 
  396000    401.81428   -275284.44            0   -273239.88   -778.43416    96.856887    98.744064    99.242785    4.1674925    2302.1376    37619.324 
  397000    402.40409   -275283.41            0   -273235.84   -798.20364    96.856887    98.744064    99.242785    3.6588591    2308.5627    37608.948 
  398000    398.61157   -275272.88            0   -273244.61   -874.94841    96.856887    98.744064    99.242785    3.4746876    2315.0598    37599.764 
  399000    400.38243   -275284.25            0   -273246.98   -782.37011    96.856887    98.744064    99.242785    3.8651745    2321.9254    37596.563 
  400000    400.81717   -275281.39            0    -273241.9   -993.70737    96.856887    98.744064    99.242785    3.5605581    2328.7378    37592.482 
  401000    401.75225   -275272.28            0   -273228.03   -733.91872    96.856887    98.744064    99.242785    3.6003891    2335.2716    37583.901 
  402000    398.83391   -275282.24            0   -273252.85   -855.67603    96.856887    98.744064    99.242785    3.7749682    2341.9644    37577.883 
  403000    399.79048   -275269.94            0   -273235.67   -866.88973    96.856887    98.744064    99.242785    3.5960288    2348.4496    37568.541 
  404000    399.02503   -275269.79            0   -273239.42   -797.55072    96.856887    98.744064    99.242785    3.5113382     2354.947    37559.409 
  405000     398.5668   -275283.55            0   -273255.51   -746.62816    96.856887    98.744064    99.242785    4.0631746    2361.8212    37556.284 
  406000    397.45597   -275284.71            0   -273262.33   -752.90607    96.856887    98.744064    99.242785     3.555137    2368.5964    37551.568 
  407000    401.62585   -275274.82            0   -273231.22   -974.27827    96.856887    98.744064    99.242785    4.0428301    2375.0677    37542.036 
  408000    400.26731   -275274.26            0   -273237.57   -900.16159    96.856887    98.744064    99.242785    3.7387666    2381.7753    37536.247 
  409000    399.80887   -275297.21            0   -273262.85   -884.60724    96.856887    98.744064    99.242785    3.5668213    2388.2836     37527.32 
  410000    397.64083   -275290.87            0   -273267.54   -1022.1951    96.856887    98.744064    99.242785    3.6055025    2394.8097    37518.686 
  411000    400.43373   -275273.09            0   -273235.56   -1011.0281    96.856887    98.744064    99.242785    4.5779647    2401.6809    37515.453 
  412000    399.79865   -275286.41            0   -273252.11   -804.40617    96.856887    98.744064    99.242785    3.7476672    2408.5321     37511.89 
  413000    399.23964   -275288.45            0   -273256.99   -865.90237    96.856887    98.744064    99.242785    3.7178296    2415.0027    37502.398 
  414000    401.41014   -275282.23            0   -273239.73   -771.46488    96.856887    98.744064    99.242785     3.222345    2421.6982    37496.404 
  415000    399.58505   -275291.68            0   -273258.46   -688.36213    96.856887    98.744064    99.242785    3.4950996    2428.2574    37488.302 
  416000    400.09243   -275280.49            0   -273244.69   -936.75141    96.856887    98.744064    99.242785    3.1842069    2434.7171    37478.677 
  417000    397.53268   -275298.56            0   -273275.78   -824.72684    96.856887    98.744064    99.242785    3.6502283    2441.5616    37474.977 
  418000    398.33893   -275273.81            0   -273246.93   -771.89009    96.856887    98.744064    99.242785    3.7256541    2448.4474     37471.89 
  419000    396.96332   -275277.08            0    -273257.2   -844.78821    96.856887    98.744064    99.242785    3.6411059    2454.9931    37463.594 
  420000    397.17725   -275286.75            0   -273265.78   -597.99924    96.856887    98.744064    99.242785     3.546132    2461.7158        37458 
  421000    401.53582    -275294.1            0   -273250.96   -693.88097    96.856887    98.744064    99.242785    3.4883887    2468.1674    37448.286 
  422000    400.09331    -275285.3            0    -273249.5   -674.52372    96.856887    98.744064    99.242785    3.4301979    2474.6891    37439.651 
  423000    400.39912   -275287.84            0   -273250.48   -859.98947    96.856887    98.744064    99.242785    3.2869431    2481.5916    37436.772 
  424000    400.68494   -275283.15            0   -273244.34   -764.96878    96.856887    98.744064    99.242785    3.0993764    2488.4809    37433.673 
  425000    400.42878   -275270.87            0   -273233.35    -739.2643    96.856887    98.744064    99.242785    3.6619529     2494.951    37424.265 
  426000    398.73715   -275273.81            0   -273244.91   -742.50774    96.856887    98.744064    99.242785    3.5969165    2501.5794    37417.241 
  427000    399.46309   -275280.35            0   -273247.75    -867.9999    96.856887    98.744064    99.242785    3.4893379    2508.0965    37408.559 
  428000    399.84436   -275290.53            0   -273255.99   -724.56155    96.856887    98.744064    99.242785    3.3706668    2514.5662    37399.184 
  429000      401.194   -275284.27            0   -273242.87   -858.17292    96.856887    98.744064    99.242785    3.4406425    2521.4597    37396.108 
  430000    400.84803   -275280.13            0   -273240.48   -973.33057    96.856887    98.744064    99.242785    3.6822597    2528.2621    37391.666 
  431000    398.82729   -275280.97            0   -273251.61   -589.28156    96.856887    98.744064    99.242785    3.5301492    2534.8183     37383.58 
  432000     402.6254    -275277.3            0   -273228.62   -611.52946    96.856887    98.744064    99.242785    3.4209752    2541.5137     37377.55 
  433000    401.49293   -275303.65            0   -273260.72   -972.78255    96.856887    98.744064    99.242785     3.341174    2548.0001    37368.451 
  434000    401.40183   -275294.02            0   -273251.56   -887.38641    96.856887    98.744064    99.242785    3.2618305    2554.5982    37360.998 
  435000    404.12075      -275291            0    -273234.7   -908.48655    96.856887    98.744064    99.242785    3.1408962    2561.5387    37358.546 
  436000    402.24836   -275283.05            0   -273236.28   -1028.9832    96.856887    98.744064    99.242785    3.4390188    2568.3356     37353.98 
  437000    400.65153   -275272.34            0   -273233.69   -812.40826    96.856887    98.744064    99.242785    4.0766614     2574.769    37344.131 
  438000      402.949   -275293.77            0   -273243.44   -915.15023    96.856887    98.744064    99.242785    3.5980845    2581.4908     37338.47 
  439000    395.72887   -275300.01            0   -273286.41   -749.18154    96.856887    98.744064    99.242785    3.3050192    2587.9693    37329.295 
  440000     403.8245   -275285.18            0   -273230.39   -893.27426    96.856887    98.744064    99.242785    3.5389224    2594.5037    37320.938 
  441000      399.866   -275283.48            0   -273248.83   -947.86831    96.856887    98.744064    99.242785    3.5526939    2601.3733    37317.399 
  442000    399.99322   -275276.34            0   -273241.04   -852.00645    96.856887    98.744064    99.242785    4.1800802    2608.2777     37314.34 
  443000    398.53271   -275283.55            0   -273255.69   -788.19341    96.856887    98.744064    99.242785    3.8844248    2614.8045    37305.875 
  444000    400.31961   -275250.36            0    -273213.4   -931.87704    96.856887    98.744064    99.242785    3.5517488    2621.4489    37299.093 
  445000    399.26709   -275276.73            0   -273245.13   -1061.4549    96.856887    98.744064    99.242785    3.4831335    2627.9934    37290.893 
  446000    399.24706      -275272            0    -273240.5    -608.9208    96.856887    98.744064    99.242785    3.3814196    2634.4838    37281.937 
  447000    396.97083   -275282.73            0   -273262.81   -891.25962    96.856887    98.744064    99.242785    3.5901906    2641.5664    37281.351 
  448000    397.24794   -275287.65            0   -273266.32   -969.49385    96.856887    98.744064    99.242785    3.6449469    2648.3846    37277.012 
  449000    401.98119   -275286.47            0   -273241.06   -847.07887    96.856887    98.744064    99.242785    3.5133606    2654.8045    37267.068 
  450000    400.87908   -275284.18            0   -273244.38   -919.74605    96.856887    98.744064    99.242785    3.4582871    2661.5185    37261.259 
  451000    398.76793   -275275.53            0   -273246.47   -878.99131    96.856887    98.744064    99.242785    3.2409305    2668.0673    37253.139 
  452000    398.93367    -275299.5            0    -273269.6   -731.40357    96.856887    98.744064    99.242785    3.2456233    2674.5646    37244.311 
  453000    402.05358   -275292.09            0   -273246.31   -793.80101    96.856887    98.744064    99.242785    3.8190625    2681.4738    37241.213 
  454000    401.30486   -275288.46            0   -273246.49    -755.0735    96.856887    98.744064    99.242785    3.1971287    2688.3722    37237.947 
  455000     398.1352   -275282.74            0    -273256.9   -944.42675    96.856887    98.744064    99.242785    3.5404175    2694.9111    37229.698 
  456000    400.28809   -275291.92            0   -273255.12   -991.44538    96.856887    98.744064    99.242785    3.7809939    2701.5604    37222.978 
  457000    399.58174   -275288.48            0   -273255.28   -887.51645    96.856887    98.744064    99.242785    3.2864511    2708.1272    37215.124 
  458000    401.35785    -275285.8            0   -273243.57   -858.40467    96.856887    98.744064    99.242785    4.2123264    2714.6897    37207.218 
  459000    401.35632   -275275.06            0   -273232.82   -844.79634    96.856887    98.744064    99.242785    3.6920719    2721.6523    37204.787 
  460000     399.2175    -275290.5            0   -273259.15   -710.26457    96.856887    98.744064    99.242785    3.4310462    2728.5466    37201.404 
  461000    401.08505   -275288.84            0   -273247.99    -651.6152    96.856887    98.744064    99.242785    3.8000892    2735.0921    37193.259 
  462000    400.49514   -275291.41            0   -273253.56   -747.55957    96.856887    98.744064    99.242785    3.5460058    2741.8703     37188.28 
  463000    394.97604   -275288.22            0   -273278.45    -558.9779    96.856887    98.744064    99.242785    3.9678067    2748.3326    37179.018 
  464000    400.64088   -275298.97            0   -273260.38   -939.76258    96.856887    98.744064    99.242785       3.7122    2754.8045    37169.898 
  465000    401.45494   -275283.12            0   -273240.38   -968.25466    96.856887    98.744064    99.242785    3.9589574    2761.6101    37165.283 
  466000    400.93681    -275287.1            0      -273247   -793.59067    96.856887    98.744064    99.242785    3.1640794    2768.3884     37160.29 
  467000    399.21879   -275296.25            0   -273264.89   -769.29451    96.856887    98.744064    99.242785    3.8678169    2774.8969    37151.677 
  468000    402.56989   -275295.82            0   -273247.41   -822.58636    96.856887    98.744064    99.242785    3.7187354    2781.6694    37146.599 
  469000    399.71978   -275287.68            0   -273253.77   -745.33538    96.856887    98.744064    99.242785    3.7066065     2788.172    37137.919 
  470000    400.32143   -275293.07            0    -273256.1   -753.30729    96.856887    98.744064    99.242785    3.4977405    2794.6873    37129.417 
  471000    399.70882   -275279.99            0   -273246.15   -817.77785    96.856887    98.744064    99.242785     3.224239    2801.5115    37125.018 
  472000    402.70703   -275313.36            0   -273264.26   -1020.7871    96.856887    98.744064    99.242785    3.0431457    2808.3621    37120.957 
  473000     402.7333   -275291.66            0   -273242.42   -534.84781    96.856887    98.744064    99.242785    3.4602065    2814.8893    37112.618 
  474000    398.79369   -275295.93            0   -273266.74   -832.19122    96.856887    98.744064    99.242785    3.6663202    2821.6423    37107.259 
  475000    397.81646    -275284.6            0   -273260.38   -930.66547    96.856887    98.744064    99.242785    3.7881196    2828.1278    37098.383 
  476000    397.21581   -275308.99            0   -273287.82   -609.23371    96.856887    98.744064    99.242785    3.5269592    2834.6534    37090.042 
  477000    400.57781   -275281.24            0   -273242.97    -659.4835    96.856887    98.744064    99.242785    3.2782505    2841.5727     37086.85 
  478000     400.5491   -275296.24            0   -273258.12   -791.12461    96.856887    98.744064    99.242785     3.683478    2848.4147    37082.632 
  479000    401.51474   -275286.13            0   -273243.09   -777.11519    96.856887    98.744064    99.242785    4.2164934    2854.8873    37073.606 
  480000    398.45993   -275311.02            0   -273283.52   -748.32737    96.856887    98.744064    99.242785     4.053841    2861.6097    37067.828 
  481000    400.93982   -275289.18            0   -273249.07   -811.07887    96.856887    98.744064    99.242785    3.6759862    2868.1291    37059.422 
  482000    398.49821   -275301.53            0   -273273.84   -798.11473    96.856887    98.744064    99.242785    4.0565139    2874.5833    37050.184 
  483000    399.83029   -275287.61            0   -273253.15   -624.30187    96.856887    98.744064    99.242785    3.7357251    2881.4933     37046.82 
  484000    401.26626   -275285.49            0   -273243.71   -818.24572    96.856887    98.744064    99.242785    3.8164148    2888.4034     37043.44 
  485000    399.10758   -275285.92            0   -273255.13   -693.89082    96.856887    98.744064    99.242785    3.7395721    2894.9522    37035.423 
  486000     399.0283   -275276.18            0   -273245.79   -558.41127    96.856887    98.744064    99.242785    3.2026872    2901.6473    37029.278 
  487000    400.37641   -275299.11            0   -273261.86   -852.86948    96.856887    98.744064    99.242785    3.3700285    2908.1556    37020.754 
  488000    398.23089   -275273.72            0   -273247.39   -724.96947    96.856887    98.744064    99.242785    3.6723565    2914.6203    37011.686 
  489000    396.62072   -275283.12            0   -273264.98    -876.6579    96.856887    98.744064    99.242785    3.6437764    2921.5357    37008.338 
  490000    398.88507   -275273.54            0   -273243.88    -767.5912    96.856887    98.744064    99.242785    3.5932366    2928.3502    37003.698 
[...]
15930000    401.84182   -275471.79            0   -273427.09   -1315.5134    96.856887    98.744064    99.242785    3.2126497    65906.678    800.48597 
15931000    400.07638   -275474.66            0   -273438.94   -1480.9099    96.856887    98.744064    99.242785    3.6864523    65913.375    793.81557 
15932000    399.38211   -275458.98            0    -273426.8   -1347.6179    96.856887    98.744064    99.242785    4.0127462    65919.987    787.14415 
15933000     399.7604   -275459.12            0   -273425.01   -1616.6222    96.856887    98.744064    99.242785    3.7582876    65926.806    780.47519 
15934000    399.81267   -275465.05            0   -273430.67   -1363.4858    96.856887    98.744064    99.242785    3.5968661    65933.517    773.80493 
15935000    402.33953   -275457.17            0   -273409.94   -1374.8829    96.856887    98.744064    99.242785    3.9486381    65940.164    767.13392 
15936000    398.38808   -275474.05            0   -273446.92   -1526.0402    96.856887    98.744064    99.242785    3.6787945    65946.619    760.46071 
15937000    399.34757    -275459.4            0   -273427.39   -1341.9446    96.856887    98.744064    99.242785    3.3114394    65953.309    753.79022 
15938000    400.21109   -275484.32            0   -273447.91   -1481.3163    96.856887    98.744064    99.242785    3.2865595     65959.85    747.11804 
15939000     401.4117   -275461.23            0   -273418.72   -1370.7102    96.856887    98.744064    99.242785    3.3837122    65966.734    740.44974 
15940000    402.97108   -275463.83            0   -273413.38   -1249.4323    96.856887    98.744064    99.242785    3.5843202    65973.444    733.77945 
15941000    399.63117   -275463.72            0   -273430.26   -1340.6534    96.856887    98.744064    99.242785    3.5780665    65980.099    727.10856 
15942000    399.64192   -275468.39            0   -273434.88   -1398.2532    96.856887    98.744064    99.242785     3.513206    65986.556    720.43551 
15943000    399.03956    -275465.8            0   -273435.36   -1556.5246    96.856887    98.744064    99.242785    3.5610385    65993.332    713.76595 
15944000    402.16543   -275455.26            0   -273408.91   -1502.2274    96.856887    98.744064    99.242785     3.356338    65999.897     707.0941 
15945000    401.64534   -275463.68            0   -273419.97   -1205.6671    96.856887    98.744064    99.242785    3.3626157    66006.714    700.42495 
15946000    400.33612   -275471.97            0   -273434.93   -1418.7265    96.856887    98.744064    99.242785    3.5719055    66013.327    693.75363 
15947000     401.0509   -275470.52            0   -273429.84   -1312.6688    96.856887    98.744064    99.242785    3.7578874    66020.024     687.0832 
15948000    400.72479   -275447.89            0   -273408.87   -1328.3273    96.856887    98.744064    99.242785     3.435777    66026.501     680.4105 
15949000    400.91236   -275475.68            0    -273435.7   -1303.6208    96.856887    98.744064    99.242785    3.5409679    66033.267    673.74078 
15950000    399.45055    -275457.1            0   -273424.56   -1265.3718    96.856887    98.744064    99.242785    3.6989191    66039.785    667.06853 
15951000    402.01444   -275458.82            0   -273413.24    -1454.569    96.856887    98.744064    99.242785    3.5283024    66046.697    660.40026 
15952000    398.70233      -275463            0   -273434.27   -1547.8618    96.856887    98.744064    99.242785    3.4465203    66053.315    653.72904 
15953000    399.06259   -275448.67            0   -273418.11   -1418.3642    96.856887    98.744064    99.242785    3.3418543    66059.912     647.0576 
15954000    394.63025   -275462.96            0   -273454.95    -1711.243    96.856887    98.744064    99.242785    3.3896032    66066.353    640.38468 
15955000    400.52297   -275457.83            0   -273419.84   -1166.8054    96.856887    98.744064    99.242785    3.4476246    66073.135    633.71508 
15956000    396.35786   -275472.08            0   -273455.28   -1409.6965    96.856887    98.744064    99.242785    3.8791884    66079.607    627.04251 
15957000    401.88783   -275472.92            0   -273427.98   -1589.8312    96.856887    98.744064    99.242785    3.6035779    66086.455     620.3735 
15958000     399.6145   -275474.31            0   -273440.94   -1501.9733    96.856887    98.744064    99.242785    3.4038241    66093.234    613.70383 
15959000    400.03104    -275462.6            0   -273427.12   -1183.2466    96.856887    98.744064    99.242785    3.7282917    66099.876    607.03287 
15960000    402.57332   -275468.55            0   -273420.13   -1392.9418    96.856887    98.744064    99.242785    3.5838141    66106.389    600.36075 
15961000    400.73757   -275463.14            0   -273424.06   -1442.8081    96.856887    98.744064    99.242785    3.5468564    66113.093    593.69037 
15962000    397.99128   -275478.07            0   -273452.96   -1495.0257    96.856887    98.744064    99.242785    3.2971063    66119.573      587.018 
15963000    400.23626   -275469.56            0   -273433.03   -1179.1506    96.856887    98.744064    99.242785    3.5945996    66126.461    580.34925 
15964000    399.34634   -275479.72            0   -273447.72   -1425.7947    96.856887    98.744064    99.242785     3.684735     66133.15    573.67873 
15965000    399.62375   -275462.65            0   -273429.23   -1560.0155    96.856887    98.744064    99.242785     3.175489    66139.863     567.0084 
15966000    399.46989   -275475.58            0   -273442.95   -1611.8373    96.856887    98.744064    99.242785    3.3434917     66146.29    560.33566 
15967000    400.89546   -275459.05            0   -273419.16   -1279.6901    96.856887    98.744064    99.242785    3.7873188    66153.034    553.66561 
15968000    397.17806   -275479.74            0   -273458.77    -1517.717    96.856887    98.744064    99.242785     3.863765    66159.553    546.99368 
15969000    401.14056   -275461.34            0    -273420.2    -1230.647    96.856887    98.744064    99.242785    4.1586017    66166.393    540.32441 
15970000    400.35024   -275475.02            0   -273437.91   -1431.4368    96.856887    98.744064    99.242785    3.7545853    66173.067    533.65377 
15971000    399.54935   -275468.06            0   -273435.02   -1594.9416    96.856887    98.744064    99.242785    3.1876468    66179.728    526.98301 
15972000    399.34557   -275457.66            0   -273425.66   -1540.4415    96.856887    98.744064    99.242785    3.2680237    66186.212    520.31088 
15973000    401.56995   -275480.83            0   -273437.52   -1514.9283    96.856887    98.744064    99.242785    3.4932038    66192.941    513.64068 
15974000    401.63024   -275492.78            0   -273449.16   -1509.6884    96.856887    98.744064    99.242785    3.3812859    66199.461    506.96887 
15975000    400.97486   -275465.24            0   -273424.95   -1188.9625    96.856887    98.744064    99.242785    3.7580142    66206.286    500.29939 
15976000    401.30804   -275449.21            0   -273407.23   -1530.6494    96.856887    98.744064    99.242785    3.6725705     66212.98     493.6289 
15977000    399.38698   -275471.82            0   -273439.61   -1546.3896    96.856887    98.744064    99.242785    4.4238898    66219.573    486.95767 
15978000    401.12564   -275464.38            0   -273423.33   -1414.7633    96.856887    98.744064    99.242785    3.4995956    66226.059    480.28568 
15979000    400.13307   -275476.31            0    -273440.3   -1587.2958    96.856887    98.744064    99.242785    3.6495255    66232.821     473.6157 
15980000    399.25075   -275446.65            0   -273415.13   -1283.6889    96.856887    98.744064    99.242785    3.7331764    66239.355     466.9441 
15981000    400.19757    -275462.3            0   -273425.96   -1538.7997    96.856887    98.744064    99.242785    3.7750089    66246.098    460.27397 
15982000    399.08003   -275469.67            0   -273439.02   -1422.4079    96.856887    98.744064    99.242785    3.2115421    66252.776    453.60338 
15983000     398.2395   -275473.31            0   -273446.94   -1425.6246    96.856887    98.744064    99.242785    3.2552284    66259.502    446.93311 
15984000    398.57992   -275462.42            0   -273434.31   -1532.1834    96.856887    98.744064    99.242785    3.6132157    66265.955    440.26102 
15985000    399.63823   -275477.45            0   -273443.96   -1302.4906    96.856887    98.744064    99.242785    3.6279061    66272.691    433.59083 
15986000    398.46128   -275467.08            0   -273439.58   -1316.7129    96.856887    98.744064    99.242785    3.7177526    66279.261    426.91956 
15987000    401.75483   -275470.05            0    -273425.8   -1303.2571    96.856887    98.744064    99.242785    3.7142657    66286.204    420.25066 
15988000    396.39687   -275472.42            0   -273455.42   -1320.8659    96.856887    98.744064    99.242785    4.7593288    66292.969    413.58061 
15989000    400.81626   -275465.42            0   -273425.93   -1320.3607    96.856887    98.744064    99.242785    3.7103043    66299.595    406.90968 
15990000    400.55156   -275482.38            0   -273444.24   -1365.0306    96.856887    98.744064    99.242785    3.3036503    66306.028    400.23759 
15991000    399.62503   -275464.69            0   -273431.27   -1307.3206    96.856887    98.744064    99.242785    3.8329072    66312.792    393.56752 
15992000    404.41014   -275469.53            0   -273411.76   -1228.9022    96.856887    98.744064    99.242785    3.8332808    66319.282    386.89583 
15993000    400.22129   -275472.57            0   -273436.12   -1445.4562    96.856887    98.744064    99.242785    3.2164644    66326.106    380.22609 
15994000    400.23063    -275470.2            0    -273433.7   -1430.4972    96.856887    98.744064    99.242785    3.6162689    66332.867    373.55597 
15995000    399.03077   -275464.72            0   -273434.32   -1388.9441    96.856887    98.744064    99.242785    3.8727498    66339.513    366.88519 
15996000    399.69325   -275461.28            0   -273427.51   -1334.6115    96.856887    98.744064    99.242785    4.0772911     66346.02    360.21366 
15997000    398.44259   -275466.12            0   -273438.72   -1320.7348    96.856887    98.744064    99.242785    3.7179924     66352.72    353.54319 
15998000    401.38527   -275459.13            0   -273416.76   -1518.7343    96.856887    98.744064    99.242785    3.0992241    66359.268    346.87193 
15999000    399.16796    -275464.3            0    -273433.2   -1315.5122    96.856887    98.744064    99.242785    3.7511268    66366.151     340.2024 
16000000    397.16019   -275479.01            0   -273458.13   -1195.9936    96.856887    98.744064    99.242785    3.5347687     66372.83    333.53181 
16001000    400.76009    -275467.5            0    -273428.3    -1524.634    96.856887    98.744064    99.242785    3.5514976    66379.485     326.8611 
16002000     398.2073   -275466.74            0   -273440.53   -1207.3327    96.856887    98.744064    99.242785    3.6729047    66385.946    320.18945 
16003000    399.28208   -275459.93            0   -273428.26   -1470.5957    96.856887    98.744064    99.242785    4.0720838    66392.716    313.51931 
16004000      398.967   -275471.16            0   -273441.09   -1454.5502    96.856887    98.744064    99.242785    3.9338241    66399.225    306.84793 
16005000     401.0209   -275459.47            0   -273418.95   -1547.7046    96.856887    98.744064    99.242785    3.3276272    66406.129    300.17838 
16006000    398.20374   -275475.37            0   -273449.18   -1467.9431    96.856887    98.744064    99.242785    3.5274614    66412.879     293.5081 
16007000    403.99328   -275478.08            0   -273422.43    -1313.474    96.856887    98.744064    99.242785    3.7161836    66419.567    286.83754 
16008000    402.26945   -275483.32            0   -273436.45   -1480.3301    96.856887    98.744064    99.242785    3.6734548    66425.956    280.16571 
16009000    397.98241   -275449.52            0   -273424.46   -1569.3382    96.856887    98.744064    99.242785    3.5749709    66432.734    273.49554 
16010000    399.39768   -275474.64            0   -273442.37   -1611.3979    96.856887    98.744064    99.242785    3.5370189    66439.254    266.82431 
16011000    398.60199   -275468.71            0   -273440.49   -1484.8796    96.856887    98.744064    99.242785    3.3022224    66446.283    260.15511 
16012000    399.78198   -275469.15            0   -273434.93   -1449.6845    96.856887    98.744064    99.242785    3.2259245    66453.033    253.48477 
16013000    399.44172   -275469.46            0   -273436.97   -1361.8142    96.856887    98.744064    99.242785    3.3617439    66459.746    246.81427 
16014000     398.2753   -275464.97            0   -273438.41   -1498.4142    96.856887    98.744064    99.242785    3.6525978    66466.243    240.14299 
16015000    398.45309   -275466.12            0   -273438.66   -1418.7639    96.856887    98.744064    99.242785    3.9554933    66472.928     233.4724 
16016000      398.943    -275466.6            0   -273436.65   -1361.1419    96.856887    98.744064    99.242785    3.4963562    66479.431    226.80119 
16017000    400.28826   -275462.22            0   -273425.42   -1511.7838    96.856887    98.744064    99.242785    3.4382372    66486.291    220.13119 
16018000    399.03237   -275479.11            0    -273448.7   -1431.7474    96.856887    98.744064    99.242785    4.0440402    66492.969    213.46058 
16019000    399.60516   -275467.58            0   -273434.26   -1300.7488    96.856887    98.744064    99.242785    4.1902848     66499.62    206.78987 
16020000    400.14413   -275478.86            0    -273442.8   -1302.3523    96.856887    98.744064    99.242785     3.389223    66506.175    200.11888 
16021000    398.94589   -275462.96            0   -273432.99    -1446.312    96.856887    98.744064    99.242785    3.9014819    66512.917    193.44846 
16022000    398.26257   -275483.13            0   -273456.64   -1433.3832    96.856887    98.744064    99.242785    3.9390885    66519.411    186.77733 
16023000    399.98496   -275467.04            0   -273431.79   -1385.5573    96.856887    98.744064    99.242785    3.9587216    66526.266    180.10721 
16024000    398.97229   -275466.58            0   -273436.48   -1382.6675    96.856887    98.744064    99.242785     3.517098    66533.042    173.43685 
16025000    399.98432   -275474.12            0   -273438.87   -1474.4473    96.856887    98.744064    99.242785    3.4937696    66539.686    166.76613 
16026000    402.53649   -275457.01            0   -273408.78   -1361.0997    96.856887    98.744064    99.242785    3.2014339    66546.185    160.09507 
16027000    401.12369   -275467.21            0   -273426.17   -1416.6258    96.856887    98.744064    99.242785    3.5701301    66552.963    153.42469 
16028000    398.71405   -275452.46            0   -273423.67   -1271.8425    96.856887    98.744064    99.242785    4.1812591    66559.548    146.75386 
16029000     400.6461   -275478.44            0   -273439.82   -1546.3371    96.856887    98.744064    99.242785    3.4372428    66566.327    140.08346 
16030000    402.20605   -275465.53            0   -273418.97   -1294.7693    96.856887    98.744064    99.242785    3.8936713    66572.996    133.41282 
16031000    401.17701    -275475.7            0   -273434.38   -1391.3687    96.856887    98.744064    99.242785     3.387302    66579.668    126.74218 
16032000    399.70779   -275469.45            0   -273435.61   -1221.3216    96.856887    98.744064    99.242785    3.1475685     66586.15     120.0712 
16033000    397.15761   -275473.67            0   -273452.81   -1653.6023    96.856887    98.744064    99.242785    3.3713846    66592.909    113.40073 
16034000    399.37196   -275466.29            0   -273434.16   -1458.1341    96.856887    98.744064    99.242785    3.6148939    66599.477    106.72993 
16035000    399.08628   -275478.46            0   -273447.78   -1399.1808    96.856887    98.744064    99.242785    3.8756056    66606.271     100.0595 
16036000    402.11122   -275483.37            0    -273437.3   -1309.1218    96.856887    98.744064    99.242785    3.9916177    66613.015    93.388965 
16037000    402.05447   -275454.13            0   -273408.35   -1096.9784    96.856887    98.744064    99.242785    3.4583801    66619.703    86.718347 
16038000    400.98223   -275479.01            0   -273438.68   -1293.7816    96.856887    98.744064    99.242785    3.1973385    66626.175    80.047466 
16039000    403.12052   -275466.66            0   -273415.45   -1218.7768    96.856887    98.744064    99.242785    3.0976194    66632.915    73.376921 
16040000    402.22461   -275475.05            0    -273428.4   -1302.0055    96.856887    98.744064    99.242785     3.486034    66639.426    66.706132 
16041000    399.75892   -275471.85            0   -273437.75   -1478.0886    96.856887    98.744064    99.242785    3.3413062    66646.325    60.035725 
16042000    399.85437   -275471.28            0   -273436.69   -1412.7694    96.856887    98.744064    99.242785    3.8598147    66653.016    53.365105 
16043000    395.98796   -275475.88            0   -273460.96   -1423.9462    96.856887    98.744064    99.242785    3.2472344    66659.704    46.694479 
16044000    398.95527   -275464.39            0   -273434.38   -1339.9628    96.856887    98.744064    99.242785    3.1684082     66666.17    40.023716 
16045000    400.10403   -275462.11            0   -273426.25    -1138.441    96.856887    98.744064    99.242785    4.1595651    66672.963    33.353158 
16046000    399.61916   -275477.53            0   -273444.13   -1379.1251    96.856887    98.744064    99.242785    3.7785367    66679.429    26.682445 
16047000    400.07668   -275450.55            0   -273414.83   -1325.2495    96.856887    98.744064    99.242785     3.378901    66686.275    20.011886 
16048000    402.53079      -275469            0   -273420.79   -1242.6901    96.856887    98.744064    99.242785    3.8305235    66692.982    13.341265 
16049000    399.21144   -275457.79            0   -273426.47   -1434.1674    96.856887    98.744064    99.242785    3.7656543    66699.683    6.6706354 
16050000    401.33778   -275451.86            0   -273409.72   -1123.6428    96.856887    98.744064    99.242785    3.5923771    66706.163            0 
Loop time of 66706.2 on 160 procs for 10000000 steps with 39366 atoms

Performance: 12.952 ns/day, 1.853 hours/ns, 149.911 timesteps/s
98.9% CPU use with 160 MPI tasks x 1 OpenMP threads

MPI task timing breakdown:
Section |  min time  |  avg time  |  max time  |%varavg| %total
---------------------------------------------------------------
Pair    | 13510      | 15182      | 17008      | 544.6 | 22.76
Kspace  | 41700      | 43698      | 46021      | 405.6 | 65.51
Neigh   | 339.54     | 363.9      | 390.22     |  60.3 |  0.55
Comm    | 5261.4     | 6018.6     | 6890.2     | 440.5 |  9.02
Output  | 283.04     | 283.09     | 283.09     |   0.0 |  0.42
Modify  | 919.96     | 994.71     | 1077.9     | 109.5 |  1.49
Other   |            | 166.4      |            |       |  0.25

Nlocal:    246.037 ave 263 max 233 min
Histogram: 5 9 18 33 40 21 15 12 4 3
Nghost:    3930.06 ave 3977 max 3878 min
Histogram: 3 8 11 20 25 38 19 20 13 3
Neighs:    58534.5 ave 64050 max 53098 min
Histogram: 2 11 15 19 37 27 25 14 5 5

Total # of neighbors = 9365518
Ave neighs/atom = 237.909
Neighbor list builds = 283202
Dangerous builds = 0

# Final Commands
variable        final_energy equal etotal
print           "final_energy: ${'final_energy'}"
ERROR on proc 0: Substitution for illegal variable 'final_energy' (../input.cpp:553)
Last command: final_energy: ${'final_energy'
