LAMMPS (7 Aug 2019)
  using 1 OpenMP thread(s) per MPI task

# Input written to comply with LAMMPS 2017-08-11 00:00:00

# Atomic Configuration
units           metal
boundary        p p p
box             tilt large
atom_style      charge
read_data       monoclinic_8x8x8.lmp
  triclinic box = (0 0 0) to (82.2424 82.5065 82.2968) with tilt (-0.0846491 -0.260726 -0.235925)
  4 by 8 by 5 MPI processor grid
  reading atoms ...
  27648 atoms
  read_data CPU = 0.0487678 secs
group           lithium type 1
8704 atoms in group lithium
group           scandium type 2
2560 atoms in group scandium
group           chloride type 3
16384 atoms in group chloride
variable        T1 equal 300
variable        dt equal 0.001

# Potential Setup
pair_style      buck/coul/long 12.0
pair_coeff      * * 0.0 1.0 0.0
pair_coeff      1 1    360.530000  0.161000   0.000000 # Li Li
pair_coeff      1 3    421.040000  0.344000   0.000000 # Li Cl
pair_coeff      3 3   1227.200000  0.321000  14.530000 # Cl Cl
pair_coeff      2 3  12131.350000  0.250700   0.000000 # Sc Cl

kspace_style    pppm 1e-05

# General Setup
timestep        ${dt}
timestep        0.001

# Thermodynamic Information Output
thermo_style    custom step temp epair emol etotal press lx ly lz fmax cpu cpuremain
thermo          1000

# Intial Atom Velocity
velocity        all create ${T1} 745994 dist gaussian rot yes
velocity        all create 300 745994 dist gaussian rot yes

# Stage 0: npt_equilibriation
restart         0
fix             int all npt aniso 1.0 1.0 $(1000*dt) temp ${T1} ${T1} $(100*dt)
fix             int all npt aniso 1.0 1.0 1 temp ${T1} ${T1} $(100*dt)
fix             int all npt aniso 1.0 1.0 1 temp 300 ${T1} $(100*dt)
fix             int all npt aniso 1.0 1.0 1 temp 300 300 $(100*dt)
fix             int all npt aniso 1.0 1.0 1 temp 300 300 0.10000000000000000555
run             50000
PPPM initialization ...
  using 12-bit tables for long-range coulomb (../kspace.cpp:323)
  G vector (1/distance) = 0.266087
  grid = 72 75 72
  stencil order = 5
  estimated absolute RMS force accuracy = 0.000168694
  estimated relative force accuracy = 1.17151e-05
  using double precision MKL FFT
  3d grid and FFT values/proc = 8925 2880
Neighbor list info ...
  update every 1 steps, delay 10 steps, check yes
  max neighbors/atom: 2000, page size: 100000
  master list distance cutoff = 14
  ghost atom cutoff = 14
  binsize = 7, bins = 12 12 12
  1 neighbor lists, perpetual/occasional/extra = 1 0 0
  (1) pair buck/coul/long, perpetual
      attributes: half, newton on
      pair build: half/bin/newton/tri
      stencil: half/bin/3d/newton/tri
      bin: standard
Per MPI rank memory allocation (min/avg/max) = 4.024 | 4.083 | 4.145 Mbytes
Step Temp E_pair E_mol TotEng Press Lx Ly Lz Fmax CPU CPULeft 
       0          300   -186972.57            0   -185900.47   -735.47027    82.242362    82.506461    82.296819     2.700569            0            0 
    1000    305.86996   -192876.13            0   -191783.05   -1001.1017     87.49267    87.844786     89.11157    3.2292087     5.310874    260.23283 
    2000    297.40379   -193119.45            0   -192056.63   -235.54628    87.082669    87.915151    89.480815      2.69639    10.522917    252.55003 
    3000    302.18118   -193194.62            0   -192114.72    208.16875    86.837724    88.238536    89.371309    3.1352476    16.010356    250.82891 
    4000    299.14664   -193258.02            0   -192188.97   -190.14666    86.657872    88.670964    89.186242    3.7151381    21.387576    245.95714 
    5000    299.69255   -193299.68            0   -192228.68   -187.41115    86.564533    88.996822    89.042993    2.9611188    26.955592    242.60034 
    6000     300.4824   -193327.38            0   -192253.56    122.42697    86.533267    89.080784     88.94955     3.185449    32.471593    238.12502 
    7000    298.12624   -193342.68            0   -192277.28     -13.8277     86.42151    89.276434    88.848317    3.3799972     38.17772    234.52029 
    8000    301.27936   -193361.01            0   -192284.34   -15.278757    86.302136    89.439831    88.818122    2.9734937    43.269599     227.1654 
    9000    300.92737   -193384.81            0    -192309.4   -72.561478    86.384248     89.40915    88.805474    3.6912061     48.39168    220.45099 
   10000    300.02521   -193397.35            0   -192325.16   -120.87859    86.430015    89.436539    88.720202    2.9457964    53.564571    214.25829 
   11000    300.64853    -193408.5            0   -192334.09    314.20104    86.250703    89.649354    88.619903    3.5739751    58.996927    209.17093 
   12000    301.00452    -193426.4            0   -192350.71    76.946536    86.288073    89.601332    88.624652    3.3312474    64.321044    203.68331 
   13000    303.05248   -193434.75            0   -192351.75   -77.800363     86.25133    89.683344    88.652816    2.8139945    69.716387    198.42357 
   14000    298.52163   -193437.98            0   -192371.17   -48.859877     86.21483    89.767585    88.556335    3.4530242     75.50467    194.15487 
   15000     300.9047   -193439.65            0   -192364.32    205.86838    86.217278    89.739646    88.519965    3.0082666    80.723348    188.35448 
   16000    299.85259   -193454.94            0   -192383.37   -105.69615    86.283812    89.828894    88.433291    2.7988101    85.754611    182.22855 
   17000    302.18008   -193448.76            0   -192368.87     264.5743    86.274908    89.789308    88.538584     2.981367    90.892588    176.43855 
   18000     298.3745   -193460.61            0   -192394.32    102.22589    86.220271    89.911973    88.453781    3.1517681    96.304894     171.2087 
   19000    299.94646   -193461.88            0   -192389.97    169.11754    86.237213    89.913137     88.47059    3.3754526    101.52308    165.64293 
   20000    301.77235   -193472.22            0   -192393.79   -41.458569    86.280192     89.87335    88.495286    3.1178115    107.02466    160.53699 
   21000    298.12587   -193479.73            0   -192414.33    86.551476    86.163437    90.028014    88.410107    3.0197309       112.44    155.27429 
   22000    299.41973   -193470.89            0   -192400.87     -193.955    86.281548    89.952634     88.42431    3.0108337    118.06129    150.25983 
   23000     301.1851   -193493.65            0   -192417.32    106.02317    86.209187    90.049946     88.35178    3.1598835    123.10984    144.52025 
   24000     299.3993   -193484.58            0   -192414.63    98.186842     86.19407    90.121236    88.411199    3.0679568    128.06827    138.74063 
   25000    299.81739   -193492.86            0   -192421.41    46.588342    86.241348     90.08248    88.352927    2.8042934    133.13174    133.13174 
   26000     298.2875   -193489.36            0   -192423.38    19.523742    86.192171    90.119674     88.33227    3.3359399     138.4979    127.84422 
   27000    298.42068   -193499.32            0   -192432.86   -36.337478    86.089695    90.334909    88.321576    2.8659438    143.71328    122.42243 
   28000    298.80543   -193506.84            0   -192439.01     172.2067    86.090989    90.314781    88.274049     3.299264    149.03132    117.09604 
   29000     298.5635   -193496.26            0    -192429.3   -81.655619    86.224454    90.305216    88.165349    3.0815851    154.78025    112.08225 
   30000    299.65665   -193510.47            0    -192439.6    414.90408    86.101637    90.323992    88.173473    3.2191108    160.02782    106.68521 
   31000    301.36896   -193503.75            0   -192426.76    25.471022    86.157327    90.362988    88.129834    3.1153384    165.06991    101.17188 
   32000    299.00218   -193521.91            0   -192453.38    26.812719     86.01966    90.425136     88.22362    3.8307263     169.9479    95.595697 
   33000    300.55443   -193507.82            0   -192433.74    302.74671    86.020309    90.257093    88.279689    2.7914468    175.11063    90.208508 
   34000    298.10803   -193503.76            0   -192438.43    36.344931    86.023158    90.339413    88.189066    2.7917337    180.40174    84.894936 
   35000    300.01932   -193523.28            0   -192451.11    66.631794    86.064409    90.355687    88.169483     3.606006     185.8784    79.662172 
   36000    300.39725   -193501.95            0   -192428.43    98.718646    86.100639     90.46291    88.021354    3.5285216    191.03266    74.290479 
   37000    299.17801   -193524.02            0   -192454.86   -108.33976     86.10052    90.385753    88.083714    3.6269724    196.91224    69.185382 
   38000    296.54101    -193522.7            0   -192462.96   -66.542958      86.1197    90.367335    88.068545    3.3401095    201.95997    63.776834 
   39000    299.90171   -193530.73            0   -192458.98    232.50468    86.013214    90.516679     88.04962    2.9649513    206.96861    58.375763 
   40000    302.60922   -193540.25            0   -192458.83    250.56784    86.108404    90.351817     88.06767     3.098681    212.08523    53.021309 
   41000    298.34412   -193536.54            0   -192470.36    202.97469    85.927801    90.519298    88.002834    3.2552194     217.4799    47.739491 
   42000    301.17371   -193534.75            0   -192458.46      45.7824    86.034617    90.432429    88.004689    2.9254827    222.70076    42.419193 
   43000    300.30251   -193530.76            0   -192457.58   -63.184353    85.987722    90.646557    87.991844    2.9909891    227.87435    37.095824 
   44000    298.89795   -193540.15            0   -192471.99    105.40873    86.018222    90.512578    87.961839    3.2932188    233.46749    31.836476 
   45000    298.25226   -193546.64            0   -192480.79    73.241349     86.06007    90.437776     87.91358    3.3778592    238.81728    26.535253 
   46000    300.95809   -193536.59            0   -192461.07    98.799726    86.058375    90.544306    87.959639    3.6433315    243.79495    21.199561 
   47000    301.55247   -193549.39            0   -192471.74   -111.52164    86.000184    90.546391    87.950402    3.5659089      248.884    15.886213 
   48000    298.49682   -193550.18            0   -192483.46    185.96275    85.973828    90.583343    87.843976    3.1248318    253.87404    10.578085 
   49000    301.94178   -193538.72            0   -192459.68    3.7498105    85.869479    90.642911    87.925571    3.0970892    259.20726     5.289944 
   50000     301.0412    -193549.8            0   -192473.98   -236.78547     86.03756    90.542145    87.895973    3.1844203    264.62514            0 
Loop time of 264.625 on 160 procs for 50000 steps with 27648 atoms

Performance: 16.325 ns/day, 1.470 hours/ns, 188.946 timesteps/s
98.9% CPU use with 160 MPI tasks x 1 OpenMP threads

MPI task timing breakdown:
Section |  min time  |  avg time  |  max time  |%varavg| %total
---------------------------------------------------------------
Pair    | 50.678     | 54.973     | 59.382     |  25.8 | 20.77
Kspace  | 142.53     | 147.83     | 152.24     |  16.7 | 55.86
Neigh   | 1.5782     | 1.688      | 1.7772     |   3.7 |  0.64
Comm    | 28.498     | 31.161     | 32.874     |  16.1 | 11.78
Output  | 0.003216   | 0.003257   | 0.0045097  |   0.2 |  0.00
Modify  | 17.728     | 21.232     | 25.329     |  49.4 |  8.02
Other   |            | 7.74       |            |       |  2.93

Nlocal:    172.8 ave 190 max 159 min
Histogram: 4 15 22 29 23 33 17 12 3 2
Nghost:    3420.28 ave 3468 max 3358 min
Histogram: 1 8 9 16 21 30 31 22 12 10
Neighs:    39999 ave 44468 max 35644 min
Histogram: 2 4 16 30 30 34 23 11 8 2

Total # of neighbors = 6399847
Ave neighs/atom = 231.476
Neighbor list builds = 1177
Dangerous builds = 0

# Stage 1: nvt_equilibriation
unfix           int
restart         0
fix             int all nvt temp ${T1} ${T1} $(100*dt)
fix             int all nvt temp 300 ${T1} $(100*dt)
fix             int all nvt temp 300 300 $(100*dt)
fix             int all nvt temp 300 300 0.10000000000000000555
run             6000000
PPPM initialization ...
  using 12-bit tables for long-range coulomb (../kspace.cpp:323)
  G vector (1/distance) = 0.265917
  grid = 75 80 80
  stencil order = 5
  estimated absolute RMS force accuracy = 0.000152637
  estimated relative force accuracy = 1.06001e-05
  using double precision MKL FFT
  3d grid and FFT values/proc = 10166 3040
Per MPI rank memory allocation (min/avg/max) = 4.142 | 4.239 | 4.547 Mbytes
Step Temp E_pair E_mol TotEng Press Lx Ly Lz Fmax CPU CPULeft 
   50000     301.0412    -193549.8            0   -192473.99   -236.64955     86.03756    90.542145    87.895973    3.1845773            0            0 
   51000     299.8384   -193568.19            0   -192496.67    11.909993     86.03756    90.542145    87.895973    2.9849087    5.0356109    30208.637 
   52000    298.86964   -193557.84            0   -192489.78   -122.71627     86.03756    90.542145    87.895973    3.2336312    10.575951    31717.277 
   53000    299.16393   -193551.84            0   -192482.73   -159.74003     86.03756    90.542145    87.895973    2.9382849    15.731099    31446.469 
   54000    300.04595   -193559.11            0   -192486.85   -40.509859     86.03756    90.542145    87.895973    2.9729783    20.642217    30942.685 
   55000    303.10504   -193561.69            0    -192478.5   -9.4153305     86.03756    90.542145    87.895973    3.1503092    25.599056    30693.269 
   56000    299.16591   -193563.86            0   -192494.75   -32.156796     86.03756    90.542145    87.895973    3.0712318    30.691051    30660.361 
   57000    299.74988   -193557.63            0   -192486.43   -255.85331     86.03756    90.542145    87.895973    2.8691306    35.827014    30673.043 
   58000    302.35905   -193561.63            0    -192481.1   -216.12404     86.03756    90.542145    87.895973    2.9468622    41.027394    30729.519 
   59000    299.60391   -193574.86            0   -192504.18   -92.211853     86.03756    90.542145    87.895973    3.3585996    45.964139    30596.796 
   60000     300.4368   -193574.26            0    -192500.6   -187.75888     86.03756    90.542145    87.895973    2.7892734    51.542385    30873.889 
   61000    300.94966   -193563.92            0   -192488.43   -194.92493     86.03756    90.542145    87.895973    2.9362147    56.612305    30822.827 
   62000    302.86504   -193569.94            0   -192487.61   -134.97105     86.03756    90.542145    87.895973    3.1254399    61.423807     30650.48 
   63000    300.43814   -193574.38            0   -192500.72   -226.54292     86.03756    90.542145    87.895973    3.3285343    66.353156    30558.181 
   64000     302.7677   -193566.18            0   -192484.19   -117.08251     86.03756    90.542145    87.895973    3.1108767    71.485984    30565.364 
   65000    301.91857   -193582.73            0   -192503.78   -166.16982     86.03756    90.542145    87.895973    3.4672192    76.557163    30546.308 
   66000    297.11058   -193589.71            0   -192527.94   -397.20028     86.03756    90.542145    87.895973    2.7521976    81.865635    30617.748 
   67000    299.28502   -193569.49            0   -192499.95   -218.15799     86.03756    90.542145    87.895973     3.094586    86.969097    30608.006 
   68000    300.53923    -193582.8            0   -192508.78   -208.92011     86.03756    90.542145    87.895973     3.386301    92.476261    30732.944 
   69000    298.73357   -193584.72            0   -192517.15    163.28967     86.03756    90.542145    87.895973    3.1660023    97.486659    30687.774 
   70000    300.62869   -193581.31            0   -192506.97   -342.45569     86.03756    90.542145    87.895973    2.6839043    102.33322    30597.634 
   71000    299.93062    -193586.1            0   -192514.25   -156.06564     86.03756    90.542145    87.895973    3.1633542    107.11335    30496.701 
   72000    298.28516   -193591.01            0   -192525.04   -178.76751     86.03756    90.542145    87.895973    2.6869615    112.22432    30494.409 
   73000    299.94181   -193586.63            0   -192514.74   -171.95023     86.03756    90.542145    87.895973    3.2612112     117.3411    30493.382 
   74000     299.5902   -193597.82            0   -192527.19   -256.73686     86.03756    90.542145    87.895973    3.3608522    122.58455    30523.554 
   75000    301.01014   -193593.14            0   -192517.43   -162.19167     86.03756    90.542145    87.895973    2.9920205     127.7972    30543.532 
   76000    301.36125   -193589.33            0   -192512.37   -141.50477     86.03756    90.542145    87.895973     2.925975    133.20803    30607.108 
   77000    300.37356   -193585.99            0   -192512.56   -171.02672     86.03756    90.542145    87.895973    3.1656066    138.09471     30549.62 
   78000     297.0408   -193593.44            0   -192531.92   -354.61359     86.03756    90.542145    87.895973    3.1341189    143.03889    30508.153 
   79000    300.41439    -193594.4            0   -192520.83   -320.30581     86.03756    90.542145    87.895973     2.979457    147.98969    30470.566 
   80000    299.00968   -193595.59            0   -192527.03   -98.121117     86.03756    90.542145    87.895973    2.8496881    153.13952    30474.765 
   81000    298.54814   -193600.68            0   -192533.77   -253.53989     86.03756    90.542145    87.895973    3.0577165    158.16171    30453.782 
   82000     301.0276   -193598.18            0   -192522.41   -175.25575     86.03756    90.542145    87.895973    3.0422317    163.31028    30457.368 
   83000    301.81964   -193594.07            0   -192515.47    45.966215     86.03756    90.542145    87.895973    2.9727187    168.54221    30475.496 
   84000    300.40731   -193589.78            0   -192516.23   -374.73554     86.03756    90.542145    87.895973    3.0014274    173.88567    30511.821 
   85000    298.90589      -193593            0   -192524.81   -227.94105     86.03756    90.542145    87.895973    3.0933082    178.75421    30464.825 
   86000     298.8422   -193594.06            0    -192526.1    15.448273     86.03756    90.542145    87.895973    3.3381119    183.55084    30408.256 
   87000    299.77477   -193603.39            0    -192532.1   -394.82503     86.03756    90.542145    87.895973    2.7846514    188.51424    30381.362 
   88000    302.40148   -193601.29            0   -192520.61   -75.737366     86.03756    90.542145    87.895973    3.0824945    193.79742    30405.795 
   89000    296.69008   -193597.16            0   -192536.89   -362.25351     86.03756    90.542145    87.895973    3.4322904    198.83086    30390.532 
   90000    303.03219   -193601.03            0    -192518.1   -321.87426     86.03756    90.542145    87.895973    2.9315443    203.98984    30394.486 
   91000    298.93636   -193596.89            0    -192528.6   -200.37234     86.03756    90.542145    87.895973     3.016092    209.29724    30419.567 
   92000    298.47897   -193614.57            0   -192547.91   -301.88455     86.03756    90.542145    87.895973    2.8067374    214.61454    30444.605 
   93000    300.18912    -193603.6            0   -192530.82   -179.94527     86.03756    90.542145    87.895973    3.2353525    219.36119    30389.177 
   94000    298.84803   -193602.05            0   -192534.07   -176.32097     86.03756    90.542145    87.895973     3.177057    224.15509    30342.448 
   95000    299.04052   -193612.55            0   -192543.89   -273.69312     86.03756    90.542145    87.895973    2.7663299    229.04874    30310.784 
   96000    298.59437   -193601.51            0   -192534.44   -361.09989     86.03756    90.542145    87.895973    2.9126735    234.36643    30335.168 
   97000    298.39783    -193606.5            0   -192540.13   -96.072879     86.03756    90.542145    87.895973    3.0489168    239.44718    30328.278 
   98000    299.46889   -193605.02            0   -192534.82   -321.52472     86.03756    90.542145    87.895973     2.751845    244.57117    30326.825 
   99000    298.45579   -193615.18            0    -192548.6   -403.25976     86.03756    90.542145    87.895973    3.1509823    250.04708    30367.963 
  100000    300.60354   -193609.93            0   -192535.68   -136.84496     86.03756    90.542145    87.895973    3.0338853     255.3235    30383.497 
  101000    298.74819   -193609.78            0   -192542.16   -296.20124     86.03756    90.542145    87.895973     3.244483    260.29556    30362.711 
  102000     300.9432   -193608.47            0      -192533   -261.77984     86.03756    90.542145    87.895973    3.2815059    265.13576    30327.452 
  103000    299.08092   -193609.52            0   -192540.71   -421.39002     86.03756    90.542145    87.895973    3.1158665    270.20312    30318.829 
  104000    301.53483   -193605.01            0   -192527.43   -522.88405     86.03756    90.542145    87.895973    3.3586594    275.46475     30331.73 
  105000    299.63611   -193605.62            0   -192534.82   -354.67743     86.03756    90.542145    87.895973    2.7682549    280.61944    30332.411 
  106000    299.07411   -193613.52            0   -192544.73    -413.6296     86.03756    90.542145    87.895973    3.6988856    285.79795    30335.412 
  107000    299.07103   -193614.42            0   -192545.64   -586.16442     86.03756    90.542145    87.895973    2.7727962    291.21322     30362.81 
  108000    300.32513   -193605.17            0   -192531.91   -342.62084     86.03756    90.542145    87.895973    2.8823477    296.20861    30346.061 
  109000      302.909   -193617.38            0   -192534.89   -159.55897     86.03756    90.542145    87.895973    3.4352213    301.06541    30315.756 
  110000    299.27507   -193610.09            0   -192540.59   -288.06079     86.03756    90.542145    87.895973    2.9407014    305.96156    30290.195 
  111000    300.70328   -193618.36            0   -192543.75   -496.58009     86.03756    90.542145    87.895973    3.1591231    311.18328    30297.008 
  112000    299.33169   -193614.42            0   -192544.72   -549.02221     86.03756    90.542145    87.895973    2.8468202     316.1923    30283.062 
  113000    300.14757   -193615.48            0   -192542.85   -520.95661     86.03756    90.542145    87.895973    3.1064999     321.4455    30292.411 
  114000     301.4705   -193614.92            0   -192537.57   -457.96449     86.03756    90.542145    87.895973    2.8522563    326.76164    30307.142 
  115000      297.558   -193622.01            0   -192558.64   -564.23158     86.03756    90.542145    87.895973    3.6051038    332.40842    30351.445 
  116000     299.9171   -193615.32            0   -192543.52   -547.41596     86.03756    90.542145    87.895973    3.3687314    337.26661    30323.335 
  117000    301.29522   -193615.34            0   -192538.62   -267.17374     86.03756    90.542145    87.895973    3.1079451    342.17879    30300.698 
  118000    300.11656   -193620.88            0   -192548.36   -403.91524     86.03756    90.542145    87.895973    2.8783279    346.96455    30267.555 
  119000    298.91259   -193615.29            0   -192547.08   -400.73678     86.03756    90.542145    87.895973    3.5836664    352.14666    30269.302 
  120000    299.50876   -193622.89            0   -192552.55   -318.90956     86.03756    90.542145    87.895973    3.1192823    357.24491    30263.747 
  121000    300.79543    -193623.9            0   -192548.96   -359.73219     86.03756    90.542145    87.895973    2.9945076    362.40404    30263.289 
  122000    299.98298   -193617.08            0   -192545.05   -332.08752     86.03756    90.542145    87.895973    2.9784145    367.60213    30265.909 
  123000    301.43934   -193625.93            0   -192548.69    -655.2736     86.03756    90.542145    87.895973    2.8631497    373.02015    30286.171 
  124000    301.03979    -193634.3            0   -192558.49   -284.33299     86.03756    90.542145    87.895973    3.0288546    377.93565    30265.495 
  125000    299.99067   -193625.03            0   -192552.97   -567.02943     86.03756    90.542145    87.895973    2.8853145     382.9047    30249.472 
  126000    298.84767   -193628.12            0   -192560.14   -460.75752     86.03756    90.542145    87.895973    2.7915416    387.79051     30227.25 
  127000    300.22678   -193615.53            0   -192542.62   -400.07953     86.03756    90.542145    87.895973     2.917585    393.12799    30240.222 
  128000    300.46187   -193623.43            0   -192549.68   -544.59056     86.03756    90.542145    87.895973    3.4925075    398.18508    30231.437 
  129000     299.6725   -193633.29            0   -192562.36   -581.00032     86.03756    90.542145    87.895973    3.1197485    403.37415    30232.637 
  130000    302.76269    -193613.2            0   -192531.23   -475.57137     86.03756    90.542145    87.895973    3.2220647    408.67934    30242.271 
  131000    299.54346   -193625.75            0   -192555.29   -594.78666     86.03756    90.542145    87.895973    3.0555589    414.00551    30253.069 
  132000    302.32916   -193627.12            0    -192546.7   -345.01686     86.03756    90.542145    87.895973    3.1350788     418.8648    30229.779 
  133000    300.10578   -193630.61            0   -192558.14   -496.89378     86.03756    90.542145    87.895973    3.1458559    423.69343    30204.748 
  134000    299.14797   -193643.25            0    -192574.2   -540.03974     86.03756    90.542145    87.895973    3.2202001    428.62771    30187.637 
  135000    301.54958   -193637.49            0   -192559.86    -670.7288     86.03756    90.542145    87.895973    2.8673154    433.90217    30194.486 
  136000    300.03825   -193629.74            0   -192557.51   -480.13423     86.03756    90.542145    87.895973    3.1038177    439.11915    30197.101 
  137000    300.99342   -193635.44            0   -192559.79   -562.54743     86.03756    90.542145    87.895973    2.9879424    444.16558    30187.944 
  138000    298.43462   -193634.23            0   -192567.72   -249.21143     86.03756    90.542145    87.895973    2.9560711    449.50255    30198.398 
  139000     298.7046   -193637.32            0   -192569.86   -583.76333     86.03756    90.542145    87.895973    2.7329267    454.72708    30201.031 
  140000    299.92568   -193626.81            0   -192554.98   -440.90812     86.03756    90.542145    87.895973    3.0568416    459.68797    30186.177 
  141000    299.55825   -193626.98            0   -192556.47   -521.38838     86.03756    90.542145    87.895973    2.7966008    464.56291    30165.958 
  142000    297.70497   -193635.38            0   -192571.49   -388.86993     86.03756    90.542145    87.895973    2.9366352    469.41291    30144.473 
  143000    300.87762    -193626.7            0   -192551.47   -452.20207     86.03756    90.542145    87.895973    3.4499828    474.73119    30153.088 
  144000    298.88747    -193637.6            0   -192569.48   -523.80172     86.03756    90.542145    87.895973    3.0434884    479.91933     30153.23 
  145000    300.96667   -193626.18            0   -192550.62   -271.25647     86.03756    90.542145    87.895973    3.3815785    484.95126    30143.549 
  146000      299.862   -193634.64            0   -192563.04   -507.38166     86.03756    90.542145    87.895973    3.6311019    490.39182    30159.097 
  147000    297.44039   -193634.76            0   -192571.81   -416.85552     86.03756    90.542145    87.895973    2.9913391    495.46369    30151.775 
  148000    297.58727   -193641.46            0   -192577.98   -550.83671     86.03756    90.542145    87.895973     3.006141     500.3533    30133.522 
  149000    300.24204   -193641.66            0    -192568.7   -477.62962     86.03756    90.542145    87.895973    2.8695564    505.09713     30106.85 
  150000    298.12941   -193628.77            0   -192563.36   -623.25415     86.03756    90.542145    87.895973    2.9951671    509.89675    30083.909 
  151000    303.81122   -193625.72            0      -192540   -471.91615     86.03756    90.542145    87.895973    2.8315322     515.1687    30088.912 
  152000    297.65002   -193642.77            0   -192579.08   -381.99488     86.03756    90.542145    87.895973    2.9802251    520.37424    30089.875 
  153000    298.79675   -193632.47            0   -192564.68   -311.23713     86.03756    90.542145    87.895973    3.0328389    525.43277    30082.301 
  154000    299.01593   -193645.76            0   -192577.18   -439.17339     86.03756    90.542145    87.895973    3.0108524    530.92586    30099.412 
  155000    298.54403   -193642.91            0   -192576.02   -441.82496     86.03756    90.542145    87.895973    3.0763676    535.91751     30087.94 
  156000    299.12206   -193641.97            0   -192573.01   -796.17233     86.03756    90.542145    87.895973    3.3015341    540.74274    30067.337 
  157000    301.10831   -193644.38            0   -192568.32   -474.10349     86.03756    90.542145    87.895973    2.9172881    545.50275    30043.436 
  158000    301.79682   -193647.06            0   -192568.54   -522.87633     86.03756    90.542145    87.895973    2.9884055    550.65867     30041.49 
  159000    300.65246   -193633.05            0   -192558.62   -759.85565     86.03756    90.542145    87.895973    2.8827224     555.7809    30037.663 
  160000    299.90434    -193647.8            0   -192576.04   -385.00604     86.03756    90.542145    87.895973    3.3143779    561.03326    30040.781 
  161000    300.38271   -193635.98            0   -192562.52   -607.38592     86.03756    90.542145    87.895973    2.7440528    565.96549    30026.763 
  162000    302.32801   -193644.01            0    -192563.6   -681.18941     86.03756    90.542145    87.895973    2.6467976    571.43821    30041.323 
  163000    300.04616   -193642.31            0   -192570.05   -725.99368     86.03756    90.542145    87.895973    2.7891651    576.41562    30029.723 
  164000    299.12233   -193645.62            0   -192576.66   -367.78482     86.03756    90.542145    87.895973    2.8714605    581.31652     30014.29 
  165000    301.42644   -193644.74            0   -192567.54   -653.01953     86.03756    90.542145    87.895973    2.9646642    586.17814    29997.029 
  166000    299.27976   -193644.26            0   -192574.74   -562.69851     86.03756    90.542145    87.895973    3.1436323    591.35573     29996.01 
  167000    301.91748   -193653.41            0   -192574.46   -669.80051     86.03756    90.542145    87.895973    3.0832383    596.41602    29989.021 
  168000    299.72621   -193649.03            0   -192577.91   -537.75664     86.03756    90.542145    87.895973    3.5700646    601.61942    29989.198 
  169000    300.01347   -193643.73            0   -192571.58   -301.98446     86.03756    90.542145    87.895973     3.597965    606.64472    29980.484 
  170000    299.79814   -193636.35            0   -192564.98   -448.57952     86.03756    90.542145    87.895973    3.1969129    612.15275    29995.485 
  171000    300.06976   -193648.83            0   -192576.48   -519.78811     86.03756    90.542145    87.895973    3.0055472    617.03764     29979.87 
  172000     299.5382   -193638.95            0   -192568.51   -475.56264     86.03756    90.542145    87.895973    2.7246428    621.88662    29962.701 
  173000     300.2728   -193639.37            0   -192566.29   -312.54217     86.03756    90.542145    87.895973    3.2088217    626.77605    29947.666 
  174000    299.63683   -193651.65            0   -192580.85   -500.34612     86.03756    90.542145    87.895973    3.2491883     631.9479    29946.176 
  175000    301.30039   -193650.24            0   -192573.49   -578.42916     86.03756    90.542145    87.895973     2.922779    636.96774    29937.484 
  176000    298.73116   -193646.27            0   -192578.71   -597.90621     86.03756    90.542145    87.895973    3.3623482    642.23946    29940.592 
  177000    299.21772   -193650.05            0   -192580.75   -645.36879     86.03756    90.542145    87.895973    2.9402623     647.3115    29934.334 
  178000    299.16798   -193656.99            0   -192587.87   -572.55788     86.03756    90.542145    87.895973    2.9482323    652.84882     29949.44 
  179000    298.22595   -193653.71            0   -192587.95   -543.90624     86.03756    90.542145    87.895973    3.3690126    657.61256    29929.018 
  180000     299.3971   -193652.03            0   -192582.09   -514.83574     86.03756    90.542145    87.895973    2.7156534    662.53371    29915.945 
  181000    299.80925   -193647.56            0   -192576.15   -581.52297     86.03756    90.542145    87.895973    3.3568136    667.34779      29898.2 
  182000    298.83914   -193649.27            0   -192581.32   -383.70029     86.03756    90.542145    87.895973    2.8383579    672.59732    29900.008 
  183000    299.41215    -193645.7            0   -192575.71   -511.37422     86.03756    90.542145    87.895973    3.0185049    677.60649    29891.107 
  184000    299.49285   -193650.46            0   -192580.17   -234.90296     86.03756    90.542145    87.895973    3.1316317    682.94728    29896.782 
  185000    301.33884   -193653.81            0   -192576.93   -576.95777     86.03756    90.542145    87.895973    2.8878561    688.11347    29894.707 
  186000    300.93489    -193665.8            0   -192590.36   -438.88622     86.03756    90.542145    87.895973    2.8869147    693.38725    29897.227 
  187000    298.63569   -193646.44            0   -192579.22   -586.02915     86.03756    90.542145    87.895973    2.8889797    698.25614    29882.305 
  188000    301.00835   -193649.27            0   -192573.57    -427.0677     86.03756    90.542145    87.895973    2.7811371    703.11463    29867.087 
  189000    301.21921   -193666.56            0   -192590.11   -458.54176     86.03756    90.542145    87.895973    3.0937198    707.99671    29853.012 
  190000    300.10438    -193651.2            0   -192578.73   -525.86327     86.03756    90.542145    87.895973    3.5935456    713.26664    29855.304 
  191000    299.24453   -193650.76            0   -192581.36   -503.84905     86.03756    90.542145    87.895973    3.5044602    718.30141    29847.716 
  192000     300.2024   -193643.93            0   -192571.11   -376.19651     86.03756    90.542145    87.895973    3.7430517      723.492    29846.592 
  193000    297.61661   -193661.91            0   -192598.33    -451.6123     86.03756    90.542145    87.895973    3.0795831    728.74486    29847.963 
  194000    299.58889   -193651.15            0   -192580.52   -309.02468     86.03756    90.542145    87.895973    3.5190942    733.97033    29848.127 
  195000    301.23609   -193651.75            0   -192575.24   -327.83749     86.03756    90.542145    87.895973    3.0880462    738.76355    29830.762 
  196000    299.22779   -193658.74            0   -192589.41   -386.00145     86.03756    90.542145    87.895973    3.4312845    743.65177     29817.38 
  197000    301.89958    -193656.5            0   -192577.62   -505.83586     86.03756    90.542145    87.895973    2.7575421    748.48844     29802.06 
  198000    299.04526   -193655.82            0   -192587.14   -315.22687     86.03756    90.542145    87.895973    2.8282057    753.72358    29802.638 
  199000    301.90165   -193654.05            0   -192575.16   -576.42033     86.03756    90.542145    87.895973    3.0578102    758.78851    29796.453 
  200000    300.96143   -193660.92            0   -192585.39    -464.6682     86.03756    90.542145    87.895973    2.9238627    764.00411     29796.16 
  201000    302.29426   -193653.96            0   -192573.66   -585.91666     86.03756    90.542145    87.895973    2.9444098    769.44756    29804.628 
  202000    301.35001   -193655.32            0    -192578.4   -670.14996     86.03756    90.542145    87.895973    3.3170338    774.56203    29800.255 
  203000    301.16356    -193672.9            0   -192596.65   -617.84785     86.03756    90.542145    87.895973     3.730899    779.48194    29788.437 
  204000    300.83194   -193654.29            0   -192579.22   -519.54204     86.03756    90.542145    87.895973    3.2104608    784.24596    29770.792 
  205000    301.68665   -193665.48            0   -192587.36    -511.5129     86.03756    90.542145    87.895973    2.9399313    789.02762    29753.977 
  206000    299.06091   -193660.82            0   -192592.08    -605.5896     86.03756    90.542145    87.895973    3.2775868    794.29947     29755.68 
  207000    300.07543   -193656.16            0   -192583.79   -745.13233     86.03756    90.542145    87.895973    2.8916273    799.45013    29752.784 
  208000    299.16857   -193663.42            0    -192594.3   -864.43493     86.03756    90.542145    87.895973    2.7834374    804.71567    29754.107 
  209000    300.88589   -193653.24            0   -192577.97   -452.76104     86.03756    90.542145    87.895973    2.8472619    810.16154    29761.972 
  210000    298.53104   -193654.34            0   -192587.49    -553.6256     86.03756    90.542145    87.895973    3.2571899    815.27641    29757.589 
  211000    300.60752   -193669.28            0   -192595.01   -397.28126     86.03756    90.542145    87.895973    2.8761239    820.12555     29743.56 
  212000    299.55316   -193661.17            0   -192590.67   -476.39199     86.03756    90.542145    87.895973      3.14346    825.01024    29730.925 
  213000    299.94362   -193649.09            0   -192577.19   -369.34968     86.03756    90.542145    87.895973    3.1371861    829.91697    29719.174 
  214000    299.94414    -193664.2            0    -192592.3   -473.83593     86.03756    90.542145    87.895973    3.0035491    835.08685    29716.871 
  215000    300.15257   -193659.94            0    -192587.3   -485.72967     86.03756    90.542145    87.895973    4.0159585    840.21198    29712.951 
  216000    299.77202   -193669.89            0   -192598.61   -726.06753     86.03756    90.542145    87.895973    3.2886079    845.34861     29709.42 
  217000    298.91743   -193660.45            0   -192592.22   -572.68051     86.03756    90.542145    87.895973    2.9287583    850.74648    29714.995 
  218000    302.12973   -193665.85            0   -192586.15   -414.15038     86.03756    90.542145    87.895973    2.9935192    855.72286    29705.808 
  219000    301.09839   -193669.21            0   -192593.19   -499.84742     86.03756    90.542145    87.895973    3.1791968    860.53418    29690.975 
  220000    299.30405    -193667.6            0   -192597.99    -573.0564     86.03756    90.542145    87.895973    2.6497665    865.39949    29678.112 
  221000    301.35818   -193657.41            0   -192580.46   -408.10687     86.03756    90.542145    87.895973    2.9176984    870.46072    29672.021 
  222000    298.43807   -193667.04            0   -192600.52   -591.05849     86.03756    90.542145    87.895973    3.2175183    875.71175    29672.373 
  223000    300.12466   -193656.22            0   -192583.68   -620.69931     86.03756    90.542145    87.895973    3.2272085    880.95562    29672.419 
  224000    300.05213   -193670.19            0   -192597.91   -716.00375     86.03756    90.542145    87.895973    3.0653447    885.97344    29664.835 
  225000    301.12304   -193658.93            0   -192582.82   -464.73399     86.03756    90.542145    87.895973    2.9427145    891.40559    29671.072 
  226000    299.13956   -193668.25            0   -192599.23   -617.65332     86.03756    90.542145    87.895973    3.2353351    896.31714    29659.949 
  227000    299.63188   -193670.87            0   -192600.09   -476.65104     86.03756    90.542145    87.895973    3.3958421    901.22796    29648.873 
  228000    301.01502   -193671.11            0   -192595.39   -506.65844     86.03756    90.542145    87.895973    3.0246717     906.0816    29635.995 
  229000    302.85169   -193670.88            0    -192588.6    -610.8757     86.03756    90.542145    87.895973     4.086117    911.08052    29627.931 
  230000    296.91313   -193664.18            0   -192603.12   -651.16276     86.03756    90.542145    87.895973     3.491119    916.22702    29624.674 
  231000     299.6723   -193676.33            0    -192605.4   -373.00324     86.03756    90.542145    87.895973    3.2341282    921.44759    29623.776 
  232000    297.67392   -193673.94            0   -192610.16   -554.93742     86.03756    90.542145    87.895973     3.819874    926.55297    29619.149 
  233000    300.12717    -193665.7            0   -192593.15   -429.91743     86.03756    90.542145    87.895973    2.7767719    932.06848    29627.554 
  234000    300.36151   -193667.89            0    -192594.5   -402.90259     86.03756    90.542145    87.895973    3.5663245    936.99457    29617.176 
  235000    298.02405   -193665.82            0   -192600.78   -511.93117     86.03756    90.542145    87.895973    3.1747888    941.90155    29606.257 
  236000     301.5078   -193672.87            0   -192595.39   -375.00226     86.03756    90.542145    87.895973    2.7482216    946.62853    29589.776 
  237000     299.5306   -193670.03            0   -192599.61   -551.86516     86.03756    90.542145    87.895973    3.0621696    951.72551    29584.922 
  238000    298.15095   -193667.33            0   -192601.84   -671.83252     86.03756    90.542145    87.895973    3.0078994    956.82325    29580.089 
  239000    302.13164   -193672.41            0    -192592.7   -278.62681     86.03756    90.542145    87.895973    3.2319617    962.09919    29580.732 
  240000    297.66845   -193665.46            0    -192601.7   -571.45403     86.03756    90.542145    87.895973    3.2218036    967.15687    29574.639 
  241000    301.29293   -193665.83            0   -192589.12   -645.21342     86.03756    90.542145    87.895973    2.9264653    972.65469    29581.943 
  242000    302.29202   -193659.22            0   -192578.94   -568.58663     86.03756    90.542145    87.895973    2.8438498    977.37437    29565.575 
  243000    298.98258   -193672.91            0   -192604.45   -682.71461     86.03756    90.542145    87.895973    3.1974174    982.14952    29550.996 
  244000    302.42684   -193673.09            0   -192592.32    -684.6411     86.03756    90.542145    87.895973    2.9437932    986.90894    29536.048 
  245000    297.81404   -193682.55            0   -192618.26   -766.19108     86.03756    90.542145    87.895973     2.755533    992.05751    29532.789 
  246000    301.71362   -193677.83            0   -192599.61   -383.91989     86.03756    90.542145    87.895973    3.3484432    997.29618    29532.179 
  247000    299.34875   -193669.33            0   -192599.56    -836.3585     86.03756    90.542145    87.895973    2.9348947    1002.5678    29532.493 
  248000    298.18006   -193662.59            0      -192597    -534.3814     86.03756    90.542145    87.895973     3.070506    1007.7776    29530.938 
  249000    298.95292   -193676.27            0   -192607.92   -528.43538     86.03756    90.542145    87.895973    2.9560965    1013.2151    29535.985 
  250000    302.90365   -193665.37            0    -192582.9   -368.89126     86.03756    90.542145    87.895973    3.0473216    1018.0613    29523.779 
  251000    296.93082   -193673.41            0   -192612.28   -606.75194     86.03756    90.542145    87.895973    2.9914207    1022.9984    29514.268 
  252000    300.80766   -193675.57            0   -192600.59   -432.30028     86.03756    90.542145    87.895973    2.8089864     1027.953    29505.305 
  253000    296.71521   -193673.11            0   -192612.75   -527.80756     86.03756    90.542145    87.895973    2.8367787     1033.298    29507.528 
  254000    298.06147   -193668.58            0   -192603.42   -701.97838     86.03756    90.542145    87.895973    3.0560383    1038.3883    29502.445 
  255000    299.83805   -193677.72            0   -192606.21   -469.03758     86.03756    90.542145    87.895973    3.2505607    1043.6232    29501.445 
  256000    300.94894   -193674.57            0   -192599.08   -665.73108     86.03756    90.542145    87.895973    3.1562544       1048.9    29501.585 
  257000    299.61544   -193675.01            0   -192604.29   -586.22871     86.03756    90.542145    87.895973    3.1554952    1054.1606     29501.22 
  258000    303.00723    -193678.6            0   -192595.76   -513.80497     86.03756    90.542145    87.895973    3.3901609    1059.0837    29491.406 
  259000    299.03889   -193679.24            0   -192610.58   -489.76745     86.03756    90.542145    87.895973    3.5173109    1063.9996    29481.444 
  260000    299.44901    -193668.3            0   -192598.18   -418.78587     86.03756    90.542145    87.895973    3.0024725    1068.8815    29470.589 
  261000    300.24998   -193674.28            0   -192601.29   -519.93558     86.03756    90.542145    87.895973    3.7602139    1074.1396    29470.116 
  262000    303.63389   -193680.42            0   -192595.34   -615.01793     86.03756    90.542145    87.895973    3.0571117    1079.2528    29465.638 
  263000     300.0406   -193680.35            0    -192608.1    -295.3133     86.03756    90.542145    87.895973    2.8574883    1084.2392     29457.71 
  264000    300.16911   -193666.56            0   -192593.86   -393.88151     86.03756    90.542145    87.895973    2.9053376    1089.5931    29459.747 
  265000    300.19853   -193679.67            0   -192606.86   -621.63721     86.03756    90.542145    87.895973    3.0757442    1094.7329    29455.953 
  266000    297.31949   -193671.67            0   -192609.15   -593.62019     86.03756    90.542145    87.895973    2.6663734    1099.5151     29442.57 
  267000    301.59988    -193675.3            0   -192597.49   -588.32078     86.03756    90.542145    87.895973     3.169922     1104.275    29428.676 
  268000    300.86753   -193666.41            0   -192591.21   -484.29776     86.03756    90.542145    87.895973    3.0345246    1109.2648     29420.96 
  269000    301.03754   -193686.07            0   -192610.27    -850.4706     86.03756    90.542145    87.895973    2.7949171    1114.4682    29418.908 
  270000    300.14494    -193672.6            0   -192599.98   -581.38008     86.03756    90.542145    87.895973    3.5921626    1119.6259    29415.627 
  271000    300.83345   -193680.71            0   -192605.63   -586.18138     86.03756    90.542145    87.895973    3.2430181    1124.7725    29412.038 
  272000    299.92133   -193678.53            0   -192606.72   -567.56143     86.03756    90.542145    87.895973    3.3994336    1130.1805    29415.239 
  273000    301.75625   -193668.14            0   -192589.77   -756.04988     86.03756    90.542145    87.895973    3.7207559     1135.309    29411.123 
  274000    300.53976   -193670.93            0    -192596.9   -431.23306     86.03756    90.542145    87.895973    2.9457278    1140.2225    29401.452 
  275000    295.76337   -193679.36            0    -192622.4   -678.23152     86.03756    90.542145    87.895973    2.9727918    1145.1055    29391.042 
  276000    300.86877      -193675            0    -192599.8   -566.39468     86.03756    90.542145    87.895973    3.2757432    1150.2697    29387.864 
  277000     298.4983   -193679.41            0   -192612.68   -851.11781     86.03756    90.542145    87.895973    3.0460995    1155.4566    29385.245 
  278000    298.73749   -193673.15            0   -192605.57   -786.82003     86.03756    90.542145    87.895973    2.8931766    1160.7384     29385.01 
  279000    299.43846   -193693.46            0   -192623.37   -501.94298     86.03756    90.542145    87.895973    3.0900608    1165.7452    29377.796 
  280000    300.82677   -193677.43            0   -192602.37   -368.23545     86.03756    90.542145    87.895973    3.4814448    1171.2245    29382.457 
  281000    299.84779   -193674.18            0   -192602.63   -742.08764     86.03756    90.542145    87.895973    3.4350566    1176.3354    29377.832 
  282000    298.42308   -193681.78            0   -192615.32   -439.56419     86.03756    90.542145    87.895973    3.0226607    1181.2252    29367.704 
  283000     300.0076   -193687.05            0   -192614.93   -661.95657     86.03756    90.542145    87.895973    2.7811778    1186.0661    29356.408 
  284000     299.3323   -193674.87            0   -192605.16   -435.92407     86.03756    90.542145    87.895973    2.9538994    1191.1385    29350.875 
  285000    301.42803    -193680.2            0      -192603   -528.05838     86.03756    90.542145    87.895973    2.9028872     1196.288    29347.235 
  286000    301.46532   -193685.93            0    -192608.6   -644.49608     86.03756    90.542145    87.895973    3.2806407    1201.5441    29346.186 
  287000    298.49171   -193680.67            0   -192613.96   -471.67582     86.03756    90.542145    87.895973    3.0221444     1206.587    29339.919 
  288000    300.47723      -193689            0    -192615.2   -759.22057     86.03756    90.542145    87.895973    2.8965868    1212.1034    29345.125 
  289000    300.19949   -193681.96            0   -192609.15   -766.12854     86.03756    90.542145    87.895973    3.3865368    1217.0618    29336.791 
  290000    298.47389   -193689.32            0   -192622.68    -656.5747     86.03756    90.542145    87.895973    3.6830864    1221.8604     29324.65 
  291000    300.80676   -193683.38            0    -192608.4    -655.5839     86.03756    90.542145    87.895973    3.1555218    1226.8155     29316.31 
  292000    299.80459   -193684.35            0   -192612.95   -610.21984     86.03756    90.542145    87.895973    3.5330183    1231.9808    29312.997 
  293000    299.86683   -193686.64            0   -192615.02   -571.35853     86.03756    90.542145    87.895973    2.9235657     1236.962     29305.31 
  294000    303.06148   -193694.15            0   -192611.11   -602.27837     86.03756    90.542145    87.895973     2.849123    1242.1429    29302.355 
  295000    297.79808   -193690.95            0   -192626.72   -717.70923     86.03756    90.542145    87.895973    3.1927961     1247.256    29297.788 
  296000    298.55166   -193674.26            0   -192607.34   -542.41732     86.03756    90.542145    87.895973    2.9663957    1252.6636    29300.107 
  297000    299.18414   -193688.72            0   -192619.54   -530.66655     86.03756    90.542145    87.895973    3.1492785    1257.5984    29291.349 
  298000    300.56211   -193678.26            0   -192604.15   -412.32148     86.03756    90.542145    87.895973    4.1385725    1262.4353    29280.355 
  299000    300.24583   -193684.69            0   -192611.72   -462.98764     86.03756    90.542145    87.895973     3.132248    1267.2601    29269.127 
  300000    300.32723   -193678.39            0   -192605.12   -695.09204     86.03756    90.542145    87.895973    2.8311956    1272.3583    29264.241 
  301000    299.69382   -193680.75            0   -192609.75   -723.21071     86.03756    90.542145    87.895973    2.8963938    1277.3923    29257.882 
  302000    299.89526   -193677.81            0   -192606.09   -561.54481     86.03756    90.542145    87.895973    3.3506006    1282.6694    29257.078 
  303000    299.93776   -193689.65            0   -192617.77   -481.66274     86.03756    90.542145    87.895973    3.3233521     1287.904    29255.275 
  304000    302.16099   -193688.49            0   -192608.67   -661.86817     86.03756    90.542145    87.895973    2.7624434    1293.3119    29257.363 
  305000    298.99565   -193681.75            0   -192613.24   -673.68426     86.03756    90.542145    87.895973     3.182779       1298.1    29245.428 
  306000    297.69699    -193681.7            0   -192617.84   -544.36123     86.03756    90.542145    87.895973    3.2678059    1302.9055    29233.942 
  307000    301.18907   -193687.89            0   -192611.54   -658.31919     86.03756    90.542145    87.895973     3.271639    1307.6988    29222.233 
  308000    300.91361   -193689.06            0   -192613.69   -647.72587     86.03756    90.542145    87.895973    2.6948501    1312.8605    29218.778 
  309000    300.31499    -193687.7            0   -192614.48   -780.63127     86.03756    90.542145    87.895973     3.072438    1317.8036    29210.465 
  310000    298.76323   -193685.47            0    -192617.8   -517.04485     86.03756    90.542145    87.895973    3.0486902    1322.9632    29206.957 
  311000    302.10526   -193687.54            0   -192607.92   -423.75008     86.03756    90.542145    87.895973     3.190189    1328.2589    29206.427 
  312000      300.286   -193680.36            0   -192607.24   -777.78505     86.03756    90.542145    87.895973     3.409806    1333.5858    29206.547 
  313000    296.77649   -193679.72            0   -192619.14   -653.86804     86.03756    90.542145    87.895973    3.1274518    1338.3446    29194.231 
  314000     299.0786   -193688.71            0    -192619.9   -564.21415     86.03756    90.542145    87.895973    2.9404945    1343.1845    29183.736 
  315000    299.37033   -193675.63            0   -192605.78   -742.10945     86.03756    90.542145    87.895973    3.0824633    1348.0549    29173.942 
  316000    301.25135   -193683.12            0   -192606.55   -484.48985     86.03756    90.542145    87.895973    3.6075478    1353.3027    29172.323 
  317000    299.35134   -193691.24            0   -192621.46   -678.30209     86.03756    90.542145    87.895973    3.0100132    1358.3452    29166.265 
  318000    297.04129   -193690.95            0   -192629.43   -605.16408     86.03756    90.542145    87.895973     3.135986    1363.6002    29164.762 
  319000    299.98481   -193689.75            0   -192617.71   -834.80059     86.03756    90.542145    87.895973    2.7975788    1368.9233    29164.682 
  320000    297.40272   -193678.88            0   -192616.07   -388.51338     86.03756    90.542145    87.895973     3.108757    1374.1596    29162.721 
  321000    297.67107   -193681.02            0   -192617.25   -520.27974     86.03756    90.542145    87.895973    2.9582738    1378.9517    29151.345 
  322000    302.12301   -193679.09            0   -192599.41   -558.37352     86.03756    90.542145    87.895973     2.943845    1383.8612    29142.489 
  323000    300.82705   -193683.58            0   -192608.53   -616.41906     86.03756    90.542145    87.895973    3.6930943     1388.756    29133.355 
  324000    300.02697   -193685.59            0    -192613.4   -699.47863     86.03756    90.542145    87.895973    3.0770185    1393.9877    29131.291 
  325000    299.92833   -193682.92            0   -192611.08   -799.74731     86.03756    90.542145    87.895973     3.024215    1399.1721    29128.219 
  326000    299.16385   -193694.71            0   -192625.61   -609.06531     86.03756    90.542145    87.895973    3.1365198    1404.2948    29123.854 
  327000      297.907   -193679.31            0   -192614.69   -662.81301     86.03756    90.542145    87.895973    2.7664788    1409.6775    29124.854 
  328000    301.46709   -193691.55            0   -192614.21   -648.43015     86.03756    90.542145    87.895973    3.0331747    1414.8558      29121.6 
  329000    303.32786   -193692.44            0   -192608.46   -340.76852     86.03756    90.542145    87.895973    3.7604856    1419.6301    29110.049 
  330000    301.96809   -193696.51            0   -192617.38   -583.33163     86.03756    90.542145    87.895973    2.7591158    1424.5364    29101.245 
  331000    301.83963   -193694.32            0   -192615.65   -400.57247     86.03756    90.542145    87.895973    3.5172513    1429.3966    29091.526 
  332000     302.7682   -193693.31            0   -192611.32   -725.93867     86.03756    90.542145    87.895973    3.2143822    1434.6932    29090.694 
  333000    298.87619   -193688.61            0   -192620.53   -843.20427     86.03756    90.542145    87.895973    2.7696641    1439.8259    29086.518 
  334000    301.85886   -193691.72            0   -192612.98   -509.72504     86.03756    90.542145    87.895973    3.5733649    1444.8984    29081.125 
  335000    303.55754   -193687.47            0   -192602.66   -720.35271     86.03756    90.542145    87.895973    2.9581729    1450.2376    29081.081 
  336000    299.99244   -193684.24            0   -192612.17   -655.86537     86.03756    90.542145    87.895973    3.3035724    1455.5002    29079.468 
  337000    298.46989   -193688.06            0   -192621.43   -670.21662     86.03756    90.542145    87.895973    3.1112957    1460.3975     29070.56 
  338000    300.20733    -193693.2            0   -192620.36   -723.75985     86.03756    90.542145    87.895973    3.0476886    1465.2174    29060.145 
  339000    297.06715   -193679.72            0   -192618.11   -697.55305     86.03756    90.542145    87.895973     2.890729    1470.2055    29053.093 
  340000    300.54362   -193679.66            0   -192605.62   -402.79075     86.03756    90.542145    87.895973     3.041094    1475.6861     29055.75 
  341000    303.25386   -193690.49            0   -192606.77   -642.02489     86.03756    90.542145    87.895973    3.0589893    1480.9971    29055.025 
  342000     299.1877   -193692.91            0   -192623.72   -706.28493     86.03756    90.542145    87.895973    3.0924005    1485.8849    29045.996 
  343000    300.06985   -193691.62            0   -192619.28    -627.2739     86.03756    90.542145    87.895973    3.3162022    1491.3231    29047.716 
  344000    300.26754   -193687.92            0   -192614.87   -712.58057     86.03756    90.542145    87.895973    3.0587585    1496.3543    29041.489 
  345000     301.4006   -193676.32            0   -192599.22   -460.86406     86.03756    90.542145    87.895973    2.7978141    1501.3521    29034.623 
  346000    298.99366   -193683.95            0   -192615.45   -503.46117     86.03756    90.542145    87.895973    3.0521141    1506.2901    29026.617 
  347000    301.29036   -193682.64            0   -192605.93   -584.00121     86.03756    90.542145    87.895973    3.5040271    1511.4705    29023.287 
  348000    298.92236   -193701.83            0   -192633.58   -692.86644     86.03756    90.542145    87.895973    3.0824152     1516.504    29017.133 
  349000    299.73589   -193689.05            0    -192617.9   -759.24618     86.03756    90.542145    87.895973    2.9723002    1521.7274    29014.609 
  350000    302.14613      -193687            0   -192607.23   -611.22326     86.03756    90.542145    87.895973     2.900336     1526.764    29008.517 
  351000    301.58875   -193689.26            0   -192611.49   -877.18276     86.03756    90.542145    87.895973    3.0427831    1532.1893     29009.79 
  352000    299.80351   -193703.91            0   -192632.52   -752.93532     86.03756    90.542145    87.895973    2.7916022    1537.0683    29000.712 
  353000    299.21716   -193696.72            0   -192627.43   -652.75207     86.03756    90.542145    87.895973    3.2298743     1541.993    28992.522 
  354000    301.43149   -193685.46            0   -192608.25   -649.27295     86.03756    90.542145    87.895973    3.0904136    1546.8153    28982.434 
  355000    299.03481   -193693.45            0   -192624.81   -630.84902     86.03756    90.542145    87.895973    3.2012599    1551.9846     28978.86 
  356000    300.68388   -193695.81            0   -192621.27   -858.19229     86.03756    90.542145    87.895973     2.939061    1557.0246     28972.87 
  357000    301.91966   -193694.98            0   -192616.03   -695.34762     86.03756    90.542145    87.895973     2.910006    1562.2649    28970.599 
  358000    303.56374   -193686.72            0   -192601.89    -752.3345     86.03756    90.542145    87.895973    3.2469838    1567.4867    28967.968 
  359000    300.98586   -193694.21            0   -192618.59   -848.75619     86.03756    90.542145    87.895973    2.9262354    1572.9222    28969.256 
  360000    299.46304   -193691.61            0   -192621.43   -678.38019     86.03756    90.542145    87.895973    3.2665595    1577.7247    28958.882 
  361000    299.64608   -193675.31            0   -192604.47   -631.00629     86.03756    90.542145    87.895973    2.9310227    1582.6083    28950.027 
  362000     300.7065   -193699.09            0   -192624.47    -656.1941     86.03756    90.542145    87.895973    3.6987706    1587.5238     28941.78 
  363000    299.71611   -193697.49            0   -192626.41   -775.92931     86.03756    90.542145    87.895973    3.2133484    1592.8038    28940.176 
  364000    301.87364   -193686.13            0   -192607.34   -742.40691     86.03756    90.542145    87.895973    2.7813464    1597.8876    28934.996 
  365000    296.86444   -193693.54            0   -192632.65   -553.29326     86.03756    90.542145    87.895973    3.5529478    1603.0589    28931.396 
  366000    300.10734   -193693.16            0   -192620.68   -660.22824     86.03756    90.542145    87.895973    2.8348763    1608.3128    28929.272 
  367000    299.48253    -193695.8            0   -192625.55   -893.03341     86.03756    90.542145    87.895973    2.7163011     1613.752     28930.45 
  368000    300.34753   -193690.35            0   -192617.02   -693.65782     86.03756    90.542145    87.895973    2.8857836    1618.5722    28920.526 
  369000    297.78367   -193687.28            0   -192623.11   -791.46625     86.03756    90.542145    87.895973    3.2936993    1623.4604    28911.846 
  370000    301.21476   -193697.11            0   -192620.67   -798.56308     86.03756    90.542145    87.895973    3.4958557     1628.361    28903.407 
  371000    298.36909   -193705.18            0   -192638.91   -918.09578     86.03756    90.542145    87.895973    2.7135069     1633.614    28901.226 
  372000    300.88934   -193692.65            0   -192617.38   -645.30482     86.03756    90.542145    87.895973    2.6991815    1638.5953    28894.236 
  373000      300.525   -193693.41            0   -192619.44   -795.71758     86.03756    90.542145    87.895973    3.3818549    1643.7552    28890.398 
  374000    299.30801   -193681.25            0   -192611.62   -635.25969     86.03756    90.542145    87.895973    3.1722065    1649.0149    28888.299 
  375000    302.09061   -193689.87            0    -192610.3   -713.99634     86.03756    90.542145    87.895973     2.923921    1654.2472    28885.702 
  376000    301.21309   -193696.53            0    -192620.1    -634.4976     86.03756    90.542145    87.895973    3.0023908    1659.0954    28876.403 
  377000    297.28273   -193699.49            0   -192637.11   -749.36914     86.03756    90.542145    87.895973     3.362924    1663.8979    28866.339 
  378000    301.07283   -193696.56            0   -192620.63   -533.58034     86.03756    90.542145    87.895973     2.929523    1668.8731    28859.294 
  379000    298.47441   -193681.14            0    -192614.5   -755.53222     86.03756    90.542145    87.895973    3.0669008    1674.1041    28856.669 
  380000    299.90505   -193697.28            0   -192625.52   -696.21568     86.03756    90.542145    87.895973    3.3716806    1679.2245    28852.129 
  381000     301.1383   -193695.92            0   -192619.75   -539.30614     86.03756    90.542145    87.895973    2.9222501    1684.3083     28846.96 
  382000     300.4727   -193694.93            0   -192621.14    -660.4469     86.03756    90.542145    87.895973    3.0695362    1689.6646    28846.442 
  383000    299.86202   -193694.71            0   -192623.11   -636.41822     86.03756    90.542145    87.895973     2.729836    1694.7972    28842.089 
  384000    301.95695   -193689.94            0   -192610.85   -742.99885     86.03756    90.542145    87.895973    3.0649196    1699.6037    28832.199 
  385000     298.9527   -193693.02            0   -192624.67   -734.95209     86.03756    90.542145    87.895973    2.9798077     1704.367    28821.609 
  386000    300.01611   -193696.84            0   -192624.69   -831.60114     86.03756    90.542145    87.895973     3.413465    1709.1765    28811.832 
  387000    301.15667   -193691.59            0   -192615.36   -656.19986     86.03756    90.542145    87.895973    2.9558673     1714.491    28810.571 
  388000    300.02742   -193691.45            0   -192619.26   -740.49552     86.03756    90.542145    87.895973    3.3182603    1719.6856    28807.277 
  389000    300.46247   -193689.84            0   -192616.09   -844.48278     86.03756    90.542145    87.895973    2.9107716    1724.7031    28801.016 
  390000    301.44122   -193684.14            0    -192606.9   -737.11963     86.03756    90.542145    87.895973    2.9480333    1730.1072    28801.196 
  391000    301.19995   -193705.38            0   -192628.99   -665.53274     86.03756    90.542145    87.895973    2.9593363    1735.1652    28795.601 
  392000    303.39472   -193677.43            0    -192593.2   -639.10803     86.03756    90.542145    87.895973    3.0337051     1740.079    28787.624 
  393000    298.96565      -193698            0    -192629.6   -815.19977     86.03756    90.542145    87.895973    3.2148603    1744.9665    28779.229 
  394000    302.12442   -193694.64            0   -192614.95   -601.66023     86.03756    90.542145    87.895973    3.0041932    1749.9778     28772.89 
  395000    301.96834    -193695.8            0   -192616.67   -754.24698     86.03756    90.542145    87.895973    2.9880476    1755.1306     28768.88 
  396000    299.67794   -193691.64            0   -192620.69   -746.01347     86.03756    90.542145    87.895973    2.9908741    1760.2616    28764.507 
  397000    298.90346   -193689.01            0   -192620.83   -605.32635     86.03756    90.542145    87.895973    2.9801982    1765.2815    28758.318 
  398000    297.41543   -193703.31            0   -192640.45   -662.10587     86.03756    90.542145    87.895973    2.7422515    1770.7035    28758.666 
  399000    300.40818   -193695.72            0   -192622.17   -529.87162     86.03756    90.542145    87.895973    2.9673332    1775.7679    28753.193 
  400000    298.72043    -193695.3            0   -192627.78   -723.66972     86.03756    90.542145    87.895973    3.2934355    1780.4844    28742.106 
  401000    300.16768   -193694.91            0   -192622.22   -829.65059     86.03756    90.542145    87.895973    2.9192862    1785.3299     28733.13 
  402000    299.98597   -193691.77            0   -192619.72   -614.70941     86.03756    90.542145    87.895973    2.7697173    1790.2825    28725.897 
  403000    301.37303    -193702.2            0    -192625.2   -773.22751     86.03756    90.542145    87.895973    2.8861594    1795.4796    28722.587 
  404000    300.34638   -193697.78            0   -192624.45   -660.13877     86.03756    90.542145    87.895973     2.965562    1800.7898    28721.072 
  405000     300.5573   -193682.26            0   -192608.17   -553.72274     86.03756    90.542145    87.895973    3.0404352    1805.8198    28715.079 
  406000    297.74692   -193692.16            0   -192628.12    -791.6652     86.03756    90.542145    87.895973    3.2868677    1811.2903    28716.075 
  407000    300.84875   -193694.38            0   -192619.25   -676.14701     86.03756    90.542145    87.895973    3.2057404    1816.2385    28708.778 
  408000     298.6719   -193693.34            0   -192625.99   -641.38227     86.03756    90.542145    87.895973    3.0638137    1821.1316    28700.626 
  409000    296.37277   -193696.02            0   -192636.88   -856.04633     86.03756    90.542145    87.895973    2.9343569    1826.0097    28692.258 
  410000    300.45208    -193690.7            0   -192616.99   -770.44198     86.03756    90.542145    87.895973    3.5799728      1831.13    28687.704 
  411000    298.92708   -193703.27            0      -192635   -606.45019     86.03756    90.542145    87.895973    3.0566272    1836.1918    28682.232 
  412000    298.35233   -193694.54            0   -192628.33    -739.7636     86.03756    90.542145    87.895973    3.0185938    1841.5899    28681.999 
  413000    299.62355   -193687.21            0   -192616.46   -726.16551     86.03756    90.542145    87.895973    2.9096899    1846.6708    28676.813 
  414000    299.64753   -193693.12            0   -192622.28   -704.93414     86.03756    90.542145    87.895973       3.4178    1852.0991    28677.007 
  415000    301.34196   -193699.52            0   -192622.63   -646.01913     86.03756    90.542145    87.895973    4.2229327    1857.0339    28669.551 
  416000    299.07092   -193696.62            0   -192627.84   -997.79216     86.03756    90.542145    87.895973    3.0171821    1861.9681    28662.099 
  417000    301.72445   -193698.14            0   -192619.88   -944.16674     86.03756    90.542145    87.895973    3.1684636    1866.8684    28654.141 
  418000    297.89651   -193692.98            0    -192628.4   -813.08663     86.03756    90.542145    87.895973     3.273339    1872.0427    28650.393 
  419000    300.77789   -193696.38            0    -192621.5    -640.4762     86.03756    90.542145    87.895973     3.198288    1877.0582    28644.214 
  420000    300.08779   -193687.62            0   -192615.21   -758.27887     86.03756    90.542145    87.895973    2.9801266    1882.3066    28641.584 
  421000     300.5558   -193702.06            0   -192627.98   -668.22793     86.03756    90.542145    87.895973    3.1477777    1887.5003    28638.111 
  422000    300.24949   -193691.38            0   -192618.39   -1070.0529     86.03756    90.542145    87.895973    3.1512928    1892.9134    28637.947 
  423000    298.30619   -193704.15            0   -192638.11   -847.24345     86.03756    90.542145    87.895973    2.8841729    1897.7588    28629.192 
  424000    301.58912   -193686.26            0   -192608.49   -959.03691     86.03756    90.542145    87.895973    2.5334056    1902.5519    28619.672 
  425000    299.86528   -193697.83            0   -192626.22   -598.18167     86.03756    90.542145    87.895973    3.0102225    1907.3718    28610.576 
  426000    300.81314   -193695.15            0   -192620.15   -791.33479     86.03756    90.542145    87.895973    3.0678047    1912.5576    28606.979 
  427000     298.4411      -193693            0   -192626.47   -724.32477     86.03756    90.542145    87.895973    2.8099361    1917.6649    28602.201 
  428000     300.2994    -193690.2            0   -192617.03   -794.01161     86.03756    90.542145    87.895973     3.379121    1922.9539    28600.124 
  429000     300.4682   -193699.62            0   -192625.85   -880.36254     86.03756    90.542145    87.895973    3.2665054    1928.2321     28597.87 
  430000    299.17198    -193699.1            0   -192629.97   -652.06132     86.03756    90.542145    87.895973    3.2584924    1933.6133    28597.124 
  431000    302.50018   -193699.39            0   -192618.36   -800.89875     86.03756    90.542145    87.895973     3.265299    1938.4656    28588.552 
  432000     298.9599    -193699.7            0   -192631.32   -856.95479     86.03756    90.542145    87.895973    3.1061379    1943.3077     28579.85 
  433000      301.937   -193687.23            0   -192608.21   -812.14804     86.03756    90.542145    87.895973    3.2004394    1948.1949    28571.829 
  434000    298.69574   -193696.99            0   -192629.56   -884.67622     86.03756    90.542145    87.895973    3.4116401    1953.4582    28569.326 
  435000    299.49663   -193710.57            0   -192640.27   -690.82688     86.03756    90.542145    87.895973    3.1024753    1958.4805    28563.294 
  436000    299.49827    -193695.5            0    -192625.2   -900.73739     86.03756    90.542145    87.895973    3.2461386      1963.65    28559.408 
  437000    298.26202   -193695.59            0    -192629.7   -978.94993     86.03756    90.542145    87.895973    3.0106967    1969.0076    28558.243 
  438000    300.33323    -193701.7            0   -192628.41   -969.25588     86.03756    90.542145    87.895973    2.9138599    1974.3553    28556.913 
  439000    299.51954   -193695.08            0    -192624.7   -862.58225     86.03756    90.542145    87.895973    2.7392558    1979.2224     28548.63 
  440000    300.64921   -193701.32            0    -192626.9   -693.07758     86.03756    90.542145    87.895973    2.8152716    1984.1397    28541.087 
  441000    301.84676   -193697.38            0   -192618.68   -766.87837     86.03756    90.542145    87.895973    2.7644613    1989.0352    28533.245 
  442000    299.66529   -193704.26            0   -192633.36   -439.76336     86.03756    90.542145    87.895973    2.8927537    1994.2995    28530.693 
  443000    299.34295   -193694.04            0   -192624.29   -706.74002     86.03756    90.542145    87.895973    3.3412804    1999.4777    28526.899 
  444000    299.18676   -193700.95            0   -192631.76   -983.17839     86.03756    90.542145    87.895973    3.0485828    2004.5143    28521.084 
  445000    300.13648   -193688.31            0   -192615.73   -775.46327     86.03756    90.542145    87.895973    3.0902505    2009.9613    28521.097 
  446000    297.44837   -193697.67            0   -192634.69   -863.59667     86.03756    90.542145    87.895973    3.4586125    2015.1379    28517.255 
  447000    300.61834   -193700.11            0    -192625.8   -612.23639     86.03756    90.542145    87.895973    2.8842332    2019.9905    28508.833 
  448000    299.08709   -193694.23            0    -192625.4   -668.43141     86.03756    90.542145    87.895973    3.2878652    2024.7831    28499.585 
  449000    297.89418   -193705.96            0   -192641.39    -804.8936     86.03756    90.542145    87.895973    3.2723974    2029.7572    28492.908 
  450000    301.73189    -193700.7            0   -192622.42   -463.58455     86.03756    90.542145    87.895973     2.774153    2034.8777    28488.288 
  451000    301.32317   -193699.76            0   -192622.94   -684.19215     86.03756    90.542145    87.895973    2.8280515    2040.2004     28486.49 
  452000    301.05861   -193700.18            0    -192624.3    -843.6067     86.03756    90.542145    87.895973    3.5928529     2045.172    28479.783 
  453000     300.9625   -193695.17            0   -192619.63   -706.57883     86.03756    90.542145    87.895973    2.9784475    2050.6446    28480.044 
  454000    302.92363   -193712.28            0   -192629.73    -435.0383     86.03756    90.542145    87.895973    2.8668157    2055.8099     28476.02 
  455000    299.93598   -193707.95            0   -192636.08    -624.4247     86.03756    90.542145    87.895973    3.1863307     2060.527    28465.799 
  456000    300.65216   -193703.47            0   -192629.05   -789.19782     86.03756    90.542145    87.895973    2.8956539    2065.2905    28456.244 
  457000    300.78885    -193686.8            0   -192611.88   -847.01668     86.03756    90.542145    87.895973    3.0441711    2070.2864    28449.906 
  458000    299.04118   -193697.51            0   -192628.84   -699.86541     86.03756    90.542145    87.895973    3.0569957    2075.5656    28447.457 
  459000    302.11049    -193704.2            0   -192624.56    -570.5417     86.03756    90.542145    87.895973    3.4697941    2080.8465    28445.019 
  460000    299.23873   -193709.02            0   -192639.64   -716.17422     86.03756    90.542145    87.895973    2.9656845    2085.8363    28438.598 
  461000    300.28751   -193700.45            0   -192627.33   -706.14684     86.03756    90.542145    87.895973    3.1944009    2091.4002     28439.99 
  462000    298.92022   -193708.44            0    -192640.2   -590.07479     86.03756    90.542145    87.895973    3.2022994    2096.3369    28432.841 
  463000    301.03974   -193694.17            0   -192618.35   -670.84866     86.03756    90.542145    87.895973    3.0222191    2101.2219    28425.004 
  464000    298.83254   -193695.65            0   -192627.72   -735.49012     86.03756    90.542145    87.895973    3.5384348    2105.9324    28414.827 
  465000    299.59922   -193702.85            0   -192632.19   -679.30843     86.03756    90.542145    87.895973    2.9176974    2111.0444    28410.079 
  466000    300.44909   -193708.17            0   -192634.47   -693.21833     86.03756    90.542145    87.895973    3.0365525    2116.1564    28405.331 
  467000    301.19269   -193698.33            0   -192621.97   -726.58165     86.03756    90.542145    87.895973    2.8850746    2121.3939     28402.26 
  468000    296.98213   -193700.02            0    -192638.7   -646.90501     86.03756    90.542145    87.895973      2.90721    2126.5043    28397.481 
  469000    301.40704   -193705.92            0   -192628.79   -703.71827     86.03756    90.542145    87.895973    3.0188579    2131.9399    28397.033 
  470000    301.22207   -193697.42            0   -192620.96   -586.57329     86.03756    90.542145    87.895973    3.0910051    2136.7575     28388.35 
  471000    303.75761   -193696.21            0   -192610.69   -399.85129     86.03756    90.542145    87.895973    3.0767528    2141.6207    28380.289 
  472000    297.20808   -193704.15            0   -192642.03   -838.15086     86.03756    90.542145    87.895973    3.2459004    2146.5163    28372.673 
  473000    300.25557   -193700.66            0   -192627.65   -443.66775     86.03756    90.542145    87.895973     3.027043    2151.6715    28368.492 
  474000    300.22169      -193697            0   -192624.11   -696.16887     86.03756    90.542145    87.895973    2.8977146    2156.7464     28363.25 
  475000    299.65784   -193696.89            0   -192626.01   -596.30145     86.03756    90.542145    87.895973    2.9307309    2162.0034    28360.397 
  476000    299.50278   -193700.79            0   -192630.47   -664.55633     86.03756    90.542145    87.895973    3.0756852    2167.1745     28356.41 
  477000    300.38815   -193694.69            0    -192621.2   -583.43349     86.03756    90.542145    87.895973    3.5181754    2172.6458    28356.335 
  478000    301.66163   -193704.29            0   -192626.26   -752.26442     86.03756    90.542145    87.895973    2.9902897    2177.3749    28346.573 
  479000    297.41374   -193701.09            0   -192638.24   -605.87392     86.03756    90.542145    87.895973    3.1132652    2182.2132    28338.251 
  480000    298.15449   -193703.19            0   -192637.68   -626.15206     86.03756    90.542145    87.895973    3.2420513    2187.1596    28331.346 
  481000    295.88875   -193711.62            0   -192654.21   -882.72724     86.03756    90.542145    87.895973    3.2045008    2192.3689    28327.848 
  482000    298.32025   -193696.69            0   -192630.59   -698.63983     86.03756    90.542145    87.895973    2.9322355    2197.2533    28320.154 
  483000    302.30174   -193701.77            0   -192621.45   -881.34374     86.03756    90.542145    87.895973    2.9143987    2202.5121    28317.286 
  484000     298.5375    -193699.9            0   -192633.03   -612.95596     86.03756    90.542145    87.895973    2.7787872    2207.5622    28311.731 
  485000    300.19699   -193694.88            0   -192622.08   -702.17843     86.03756    90.542145    87.895973     3.091884    2213.0389    28311.635 
  486000    299.72806   -193707.29            0   -192636.16   -840.83468     86.03756    90.542145    87.895973     3.235525    2217.9289    28304.029 
  487000    298.80627   -193703.33            0    -192635.5   -656.79743     86.03756    90.542145    87.895973    3.0981004     2222.684    28294.716 
  488000    298.38303   -193704.78            0   -192638.46    -1080.793     86.03756    90.542145    87.895973     3.059762    2227.6348    28287.911 
  489000    299.83857   -193707.02            0    -192635.5   -790.11605     86.03756    90.542145    87.895973    3.0016064    2232.8651    28284.654 
  490000    297.75004   -193703.95            0   -192639.89   -766.22392     86.03756    90.542145    87.895973    2.8862787    2237.8935    28278.836 
[...]
15930000    299.24167   -193817.29            0    -192747.9   -1808.7792     86.03756    90.542145    87.895973    2.7372871    50025.133    607.59271 
15931000    300.67083   -193832.66            0   -192758.16   -1844.1661     86.03756    90.542145    87.895973    2.7452366    50030.177     602.5292 
15932000    296.50375    -193824.9            0    -192765.3   -1878.7528     86.03756    90.542145    87.895973    3.1118667    50034.964    597.46263 
15933000    300.71252   -193816.51            0   -192741.87    -1867.063     86.03756    90.542145    87.895973     3.275701    50039.711    592.39564 
15934000    298.08113    -193823.7            0   -192758.47   -1506.4746     86.03756    90.542145    87.895973    3.2481145    50044.547    587.32977 
15935000     300.6468    -193820.8            0   -192746.39    -1730.711     86.03756    90.542145    87.895973    2.8401222     50049.71    582.26774 
15936000    300.21096   -193821.93            0   -192749.08    -1785.232     86.03756    90.542145    87.895973    2.9001829    50054.917     577.2062 
15937000    301.48313    -193828.8            0    -192751.4   -1860.7052     86.03756    90.542145    87.895973     3.645058     50059.86    572.14162 
15938000    299.41564   -193819.82            0   -192749.82   -1846.2059     86.03756    90.542145    87.895973    3.0322533    50065.212    567.08169 
15939000    300.72228    -193817.6            0   -192742.92   -1901.2092     86.03756    90.542145    87.895973    2.9178772    50070.373    562.01956 
15940000     301.7094   -193820.18            0   -192741.98   -1881.7803     86.03756    90.542145    87.895973    3.5684372    50075.172    556.95338 
15941000    300.28904   -193825.09            0   -192751.96   -1872.5048     86.03756    90.542145    87.895973    2.8373683    50080.065    551.88829 
15942000    300.86359   -193828.79            0   -192753.61   -1627.2714     86.03756    90.542145    87.895973    3.1891482    50085.033    546.82406 
15943000    297.87475   -193835.61            0   -192771.11   -1641.8598     86.03756    90.542145    87.895973    3.0348781    50090.231    541.76232 
15944000    299.82631   -193817.56            0   -192746.08   -1590.7801     86.03756    90.542145    87.895973    2.8055248    50095.493    536.70126 
15945000    298.30824   -193832.12            0   -192766.07   -1775.7457     86.03756    90.542145    87.895973     3.036135     50100.37    531.63606 
15946000     301.3867   -193824.45            0    -192747.4   -1769.4961     86.03756    90.542145    87.895973    3.6383807    50105.892    526.57768 
15947000    298.41895   -193821.87            0   -192755.42   -1716.7507     86.03756    90.542145    87.895973    2.6835537    50110.871    521.51356 
15948000    300.17529   -193817.61            0   -192744.89   -1805.6682     86.03756    90.542145    87.895973    2.6367543    50115.701    516.44792 
15949000    301.37013   -193818.09            0    -192741.1   -1730.2821     86.03756    90.542145    87.895973    2.7576271    50120.402    511.38101 
15950000     301.4832   -193810.31            0   -192732.91   -1712.2539     86.03756    90.542145    87.895973    3.5866572    50125.197    506.31512 
15951000    302.58726   -193823.57            0   -192742.22   -1830.7126     86.03756    90.542145    87.895973    3.0791044    50130.587    501.25524 
15952000    299.65524   -193831.93            0   -192761.07   -1691.7214     86.03756    90.542145    87.895973    3.0035689    50135.808    496.19362 
15953000    300.31065   -193826.42            0   -192753.22   -1958.3525     86.03756    90.542145    87.895973     3.117545    50140.758     491.1293 
15954000    299.59201    -193824.8            0   -192754.16    -1759.592     86.03756    90.542145    87.895973    3.1558158    50146.158    486.06939 
15955000    300.04942   -193830.18            0   -192757.91   -1964.8233     86.03756    90.542145    87.895973    2.7758946    50151.095    481.00495 
15956000    300.30219   -193828.17            0      -192755   -1898.7954     86.03756    90.542145    87.895973    2.9732326    50155.819    475.93852 
15957000    301.91671    -193818.5            0   -192739.56   -1837.1061     86.03756    90.542145    87.895973    3.4889647    50160.642    470.87309 
15958000    297.05019   -193819.27            0   -192757.71   -1601.9426     86.03756    90.542145    87.895973    3.1228946    50165.464     465.8077 
15959000     300.2843    -193811.2            0   -192738.09   -1838.4526     86.03756    90.542145    87.895973    2.9346301    50170.691    460.74608 
15960000    298.22928   -193818.94            0   -192753.17    -1948.281     86.03756    90.542145    87.895973    3.1725397    50175.984    455.68503 
15961000    298.04679   -193832.87            0   -192767.76   -1762.7377     86.03756    90.542145    87.895973    3.0093896    50180.813    450.61975 
15962000    300.67552   -193820.12            0   -192745.61   -1662.2953     86.03756    90.542145    87.895973    3.4685406    50186.246    445.55989 
15963000    301.22259   -193829.34            0   -192752.87   -1911.7017     86.03756    90.542145    87.895973    3.1210327    50191.276    440.49642 
15964000    300.52044   -193834.84            0   -192760.88   -1767.2828     86.03756    90.542145    87.895973     2.944794    50196.147    435.43158 
15965000    302.09892   -193830.41            0   -192750.81   -1506.3023     86.03756    90.542145    87.895973    2.6875761    50200.916     430.3659 
15966000    298.73309   -193823.99            0   -192756.42   -1654.0244     86.03756    90.542145    87.895973    2.9387378    50205.873    425.30187 
15967000    299.04238   -193827.26            0   -192758.59   -1874.3966     86.03756    90.542145    87.895973    3.4891598    50211.109     420.2402 
15968000    299.37054   -193819.14            0   -192749.29   -1855.9402     86.03756    90.542145    87.895973    2.9535367    50216.301    415.17813 
15969000    300.21851    -193826.7            0   -192753.83   -1828.8591     86.03756    90.542145    87.895973    2.9168709    50221.098    410.11281 
15970000    300.49725   -193830.22            0   -192756.35   -1669.9875     86.03756    90.542145    87.895973    3.1281989    50226.549    405.05282 
15971000    300.98604   -193822.03            0   -192746.41   -1896.1766     86.03756    90.542145    87.895973    2.8331626    50231.457    399.98841 
15972000    301.11024    -193830.4            0   -192754.34   -1822.4387     86.03756    90.542145    87.895973    2.8991716    50236.247    394.92312 
15973000    301.28435   -193816.06            0   -192739.37   -1754.3878     86.03756    90.542145    87.895973    2.7749902     50240.99    389.85753 
15974000    300.19244   -193831.64            0   -192758.86   -1640.1196     86.03756    90.542145    87.895973     2.811668    50245.877    384.79309 
15975000    302.88659   -193821.99            0   -192739.58   -1847.1509     86.03756    90.542145    87.895973    3.1688298    50251.151    379.73162 
15976000    297.67733   -193831.32            0   -192767.52   -1744.6869     86.03756    90.542145    87.895973    2.8686906    50256.299    374.66917 
15977000    300.27909   -193824.03            0   -192750.94   -1742.0391     86.03756    90.542145    87.895973    2.9340006    50261.287    369.60552 
15978000    298.42358   -193821.08            0   -192754.62   -1688.3112     86.03756    90.542145    87.895973    2.9200218    50266.676    364.54479 
15979000    297.81858   -193819.68            0   -192755.38    -1725.673     86.03756    90.542145    87.895973    3.4786398    50271.624    359.48084 
15980000    298.15937    -193821.5            0   -192755.99   -1789.2518     86.03756    90.542145    87.895973    3.2052615    50276.496    354.41638 
15981000     300.9673   -193816.56            0      -192741   -1832.9596     86.03756    90.542145    87.895973    2.8762371    50281.336    349.35174 
15982000      300.017   -193827.38            0   -192755.23   -1911.5394     86.03756    90.542145    87.895973    3.0265061    50286.362    344.28842 
15983000    300.93717   -193822.77            0   -192747.33    -1856.661     86.03756    90.542145    87.895973    2.9836868    50291.583    339.22642 
15984000    299.65742   -193827.77            0    -192756.9   -1785.4835     86.03756    90.542145    87.895973    3.0658474    50296.838    334.16461 
15985000    300.32831   -193818.89            0   -192745.62   -1761.8231     86.03756    90.542145    87.895973    3.0443528    50301.879    329.10137 
15986000    298.18438   -193819.84            0   -192754.23   -1817.2659     86.03756    90.542145    87.895973    3.3442026    50307.296    324.04055 
15987000    299.53678   -193833.81            0   -192763.37   -1630.4629     86.03756    90.542145    87.895973    2.9717607    50312.098    318.97577 
15988000    300.38677   -193822.18            0   -192748.71   -1718.5732     86.03756    90.542145    87.895973    3.0640164    50316.967    313.91144 
15989000    300.40754    -193832.4            0   -192758.85   -1714.8391     86.03756    90.542145    87.895973     3.594874    50321.817    308.84705 
15990000    299.60576   -193827.13            0   -192756.44   -1578.0922     86.03756    90.542145    87.895973    3.4571959    50326.885    303.78401 
15991000    301.02094   -193822.61            0   -192746.87   -1583.6932     86.03756    90.542145    87.895973    3.0093352    50332.027    298.72142 
15992000    299.11815   -193831.74            0   -192762.79   -1790.5597     86.03756    90.542145    87.895973    3.7142217    50337.124    293.65854 
15993000    303.21634   -193828.05            0   -192744.46   -1785.2845     86.03756    90.542145    87.895973    2.8677075    50342.156    288.59528 
15994000    297.88514   -193827.96            0   -192763.42    -1786.115     86.03756    90.542145    87.895973    3.1523889    50347.691    283.53486 
15995000    300.20995   -193821.08            0   -192748.23   -1688.9079     86.03756    90.542145    87.895973    3.3787239    50352.633    278.47107 
15996000    302.08681   -193823.13            0   -192743.58   -1975.9046     86.03756    90.542145    87.895973    2.7808784     50357.51    273.40695 
15997000    300.41865   -193818.51            0   -192744.92   -1833.7994     86.03756    90.542145    87.895973      2.90601    50362.252    268.34215 
15998000    299.85047   -193826.17            0   -192754.61   -1836.9412     86.03756    90.542145    87.895973    3.3564916    50367.372    263.27938 
15999000    298.45288   -193822.74            0   -192756.17    -1654.511     86.03756    90.542145    87.895973    2.7778507    50372.606     258.2172 
16000000    301.87242   -193826.78            0      -192748   -1799.1379     86.03756    90.542145    87.895973    3.0375456    50377.732    253.15443 
16001000     300.1621   -193821.44            0   -192748.77    -1827.971     86.03756    90.542145    87.895973    2.9636068    50382.801    248.09137 
16002000    303.17328   -193830.47            0   -192747.03   -1692.7765     86.03756    90.542145    87.895973    2.7437448    50388.213    243.02997 
16003000    299.58091   -193823.83            0   -192753.24   -1731.3389     86.03756    90.542145    87.895973     3.059852    50392.953    237.96531 
16004000    299.57681   -193825.45            0   -192754.86   -1779.9242     86.03756    90.542145    87.895973    2.8539893    50397.764    232.90106 
16005000    299.23818   -193814.68            0   -192745.31   -1905.3221     86.03756    90.542145    87.895973    3.0081195    50402.506    227.83654 
16006000    299.69269   -193822.35            0   -192751.35   -1703.0921     86.03756    90.542145    87.895973     3.401686    50407.568     222.7735 
16007000    297.80524   -193827.61            0   -192763.35   -1834.0937     86.03756    90.542145    87.895973    2.7079619    50412.759    217.71102 
16008000    299.34428   -193814.05            0    -192744.3   -1748.3987     86.03756    90.542145    87.895973    2.7204575    50417.877    212.64821 
16009000    300.74227   -193822.18            0   -192747.43   -1851.5642     86.03756    90.542145    87.895973     3.259575    50422.993    207.58537 
16010000    298.83889   -193836.51            0   -192768.56    -1797.444     86.03756    90.542145    87.895973    2.9275714    50428.427     202.5238 
16011000    300.66677   -193820.67            0   -192746.19   -1656.0131     86.03756    90.542145    87.895973    3.1081081    50433.195    197.45955 
16012000    300.39526   -193815.71            0   -192742.21   -1655.6827     86.03756    90.542145    87.895973    3.1653425    50437.942    192.39528 
16013000    300.15038    -193832.2            0   -192759.57    -1707.752     86.03756    90.542145    87.895973    3.1788061    50442.668      187.331 
16014000    300.61336   -193822.24            0   -192747.95   -1539.0395     86.03756    90.542145    87.895973     2.805081    50447.758     182.2681 
16015000    299.68822    -193816.4            0   -192745.42   -1864.8402     86.03756    90.542145    87.895973    2.9867076    50452.855    177.20521 
16016000    299.46654   -193827.37            0   -192757.18   -1772.1198     86.03756    90.542145    87.895973    3.0045947    50457.945     172.1423 
16017000    301.11847   -193821.59            0    -192745.5   -1823.6911     86.03756    90.542145    87.895973    3.3293592    50463.115    167.07964 
16018000    298.73474   -193824.51            0   -192756.93   -1767.7989     86.03756    90.542145    87.895973    3.3556782    50468.565    162.01786 
16019000    298.78792   -193826.84            0   -192759.07   -1680.6786     86.03756    90.542145    87.895973    3.0947949    50473.397    156.95409 
16020000    301.67752   -193824.51            0   -192746.42   -1644.2494     86.03756    90.542145    87.895973    3.0724653    50478.163    151.89016 
16021000    300.68278   -193824.82            0   -192750.28   -1575.0021     86.03756    90.542145    87.895973    3.1894925    50482.963    146.82639 
16022000    304.14882   -193822.92            0      -192736   -1503.6365     86.03756    90.542145    87.895973    2.7151302    50488.144    141.76374 
16023000    301.56353   -193822.01            0   -192744.33    -1734.238     86.03756    90.542145    87.895973    2.5912643    50493.322    136.70106 
16024000     303.1964   -193827.83            0   -192744.31   -1861.0913     86.03756    90.542145    87.895973    3.1135965    50498.397    131.63809 
16025000    300.87098   -193823.41            0    -192748.2    -1802.933     86.03756    90.542145    87.895973    2.8456371    50503.614    126.57547 
16026000    298.92175   -193823.81            0   -192755.57   -1946.1988     86.03756    90.542145    87.895973    3.4198445    50508.968    121.51315 
16027000    299.53376   -193817.46            0   -192747.03   -1692.6615     86.03756    90.542145    87.895973    3.4609417    50513.772    116.44951 
16028000    300.45558   -193827.58            0   -192753.86   -1809.2879     86.03756    90.542145    87.895973    3.1763182    50518.573    111.38591 
16029000    298.10136   -193822.77            0   -192757.46   -1772.1569     86.03756    90.542145    87.895973    3.1727627    50523.435    106.32249 
16030000    296.75612   -193822.53            0   -192762.03   -1847.8226     86.03756    90.542145    87.895973    3.0374489    50528.576    101.25967 
16031000    300.84939   -193818.91            0   -192743.77   -1696.6637     86.03756    90.542145    87.895973    3.4777838    50533.726    96.196854 
16032000     298.2793   -193824.06            0   -192758.11   -1792.4206     86.03756    90.542145    87.895973    3.3902723    50538.762    91.133813 
16033000    300.44212   -193815.76            0   -192742.08   -1737.8743     86.03756    90.542145    87.895973    3.2436323    50544.122    86.071328 
16034000    300.47713    -193831.9            0    -192758.1   -1792.7746     86.03756    90.542145    87.895973    2.4504072    50549.361    81.008592 
16035000    298.55885   -193822.45            0   -192755.51    -1856.562     86.03756    90.542145    87.895973    2.9089226    50554.161    75.945159 
16036000    297.55831   -193826.82            0   -192763.45   -1658.4404     86.03756    90.542145    87.895973    2.9616258    50558.958    70.881776 
16037000    299.78386   -193818.22            0   -192746.89   -1481.8325     86.03756    90.542145    87.895973    2.8491394    50563.758     65.81845 
16038000     299.6552   -193824.78            0   -192753.92   -1749.8292     86.03756    90.542145    87.895973    2.7889945    50568.927    60.755619 
16039000    300.99573   -193822.84            0   -192747.19   -2109.4076     86.03756    90.542145    87.895973    3.0344926     50574.12    55.692794 
16040000    298.76099   -193829.27            0   -192761.61   -1799.7381     86.03756    90.542145    87.895973    3.2630047    50579.131    50.629761 
16041000    301.08555   -193827.45            0   -192751.48   -1529.0448     86.03756    90.542145    87.895973    2.8413945    50584.462    45.567026 
16042000     299.6522    -193829.9            0   -192759.05   -1959.8767     86.03756    90.542145    87.895973    3.1813725    50589.588    40.504074 
16043000    299.72052   -193829.45            0   -192758.35   -1857.2603     86.03756    90.542145    87.895973    3.0606495    50594.379    35.440874 
16044000     300.8202   -193826.72            0   -192751.69   -1782.7796     86.03756    90.542145    87.895973    2.7488402    50599.241    30.377771 
16045000    297.79182   -193818.34            0   -192754.13   -1753.9452     86.03756    90.542145    87.895973    3.1534143    50604.076    25.314695 
16046000    298.82606   -193808.53            0   -192740.63   -1667.9451     86.03756    90.542145    87.895973    3.0835133    50609.293    20.251818 
16047000    299.87535   -193825.21            0   -192753.56   -1842.8605     86.03756    90.542145    87.895973    2.7909572    50614.488    15.188903 
16048000    300.03899   -193820.17            0   -192747.93   -1577.8412     86.03756    90.542145    87.895973    3.2426004    50619.447    10.125915 
16049000    297.41643   -193822.19            0   -192759.32   -1764.2649     86.03756    90.542145    87.895973    2.8260148    50624.836    5.0629899 
16050000    301.59248   -193823.82            0   -192746.03   -1723.8314     86.03756    90.542145    87.895973    3.8304347    50630.082            0 
Loop time of 50630.1 on 160 procs for 10000000 steps with 27648 atoms

Performance: 17.065 ns/day, 1.406 hours/ns, 197.511 timesteps/s
98.9% CPU use with 160 MPI tasks x 1 OpenMP threads

MPI task timing breakdown:
Section |  min time  |  avg time  |  max time  |%varavg| %total
---------------------------------------------------------------
Pair    | 9759.8     | 10841      | 11822      | 397.1 | 21.41
Kspace  | 29459      | 30568      | 31578      | 228.8 | 60.38
Neigh   | 299.01     | 325.03     | 347.86     |  56.7 |  0.64
Comm    | 7118.4     | 7409.1     | 7722.2     | 137.8 | 14.63
Output  | 237.47     | 237.48     | 237.49     |   0.0 |  0.47
Modify  | 898.64     | 1105       | 1412.8     | 365.2 |  2.18
Other   |            | 144.2      |            |       |  0.28

Nlocal:    172.8 ave 190 max 160 min
Histogram: 8 16 19 26 27 27 18 13 4 2
Nghost:    3409.39 ave 3480 max 3350 min
Histogram: 4 9 22 23 32 32 22 12 3 1
Neighs:    40009.3 ave 44752 max 36101 min
Histogram: 6 14 19 28 21 29 26 13 2 2

Total # of neighbors = 6401490
Ave neighs/atom = 231.535
Neighbor list builds = 226732
Dangerous builds = 0

# Final Commands
variable        final_energy equal etotal
print           "final_energy: ${'final_energy'}"
ERROR on proc 0: Substitution for illegal variable 'final_energy' (../input.cpp:553)
Last command: final_energy: ${'final_energy'
