********************************************************************************
*                       GENERAL UTILITY LATTICE PROGRAM                        *
*                                 Julian Gale                                  *
*                       Curtin Institute for Computation                       *
*                    School of Molecular and Life Sciences                     *
*                    Curtin University, Western Australia                      *
********************************************************************************
* Version = 5.2.0 * Last modified =   1st June 2020                            *
********************************************************************************
*  optimise     - perform optimisation run                                     *
*  conp         - constant pressure calculation                                *
*  property     - calculate properties for final geometry                      *
*  defect       - perform defect calculation after bulk run                    *
*  compare      - compare initial and final structures                         *
********************************************************************************

  Job Started  at 18:43.41  7th February   2022                               

  Number of CPUs =     1


  Total number of configurations input =      1

********************************************************************************
*  Input for Configuration =   1                                               *
********************************************************************************

  Formula = Sc2Cl6                                                      

  Number of irreducible atoms/shells =      14


  Total number atoms/shells =      14

  Dimensionality = 3               :  Bulk   



  Cartesian lattice vectors (Angstroms) :

        7.453000    0.000000    0.000000
        4.624520    5.844744    0.000000
        4.624520    2.237970    5.399307

  Cell parameters (Angstroms/Degrees):

  a =       7.4530    alpha =  51.6480
  b =       7.4530    beta  =  51.6480
  c =       7.4530    gamma =  51.6480

  Initial cell volume =         235.198534 Angs**3

  Temperature of configuration =   0.00     K 

  Pressure of configuration =         0.000 GPa 

  Fractional coordinates of asymmetric unit :

--------------------------------------------------------------------------------
   No.  Atomic       x           y          z         Charge      Occupancy
        Label      (Frac)      (Frac)     (Frac)        (e)         (Frac)  
--------------------------------------------------------------------------------
      1 Sc    c    0.333900    0.333900    0.333900     3.00000    1.000000    
      2 Sc    c    0.666100 *  0.666100 *  0.666100 *   3.00000    1.000000    
      3 Cl    c    0.073700 *  0.443900 *  0.705300 *   1.48500    1.000000    
      4 Cl    c    0.294700 *  0.926300 *  0.556100 *   1.48500    1.000000    
      5 Cl    c    0.443900 *  0.705300 *  0.073700 *   1.48500    1.000000    
      6 Cl    c    0.556100 *  0.294700 *  0.926300 *   1.48500    1.000000    
      7 Cl    c    0.705300 *  0.073700 *  0.443900 *   1.48500    1.000000    
      8 Cl    c    0.926300 *  0.556100 *  0.294700 *   1.48500    1.000000    
      9 Cl    s    0.073700 *  0.443900 *  0.705300 *  -2.48500    1.000000    
     10 Cl    s    0.294700 *  0.926300 *  0.556100 *  -2.48500    1.000000    
     11 Cl    s    0.443900 *  0.705300 *  0.073700 *  -2.48500    1.000000    
     12 Cl    s    0.556100 *  0.294700 *  0.926300 *  -2.48500    1.000000    
     13 Cl    s    0.705300 *  0.073700 *  0.443900 *  -2.48500    1.000000    
     14 Cl    s    0.926300 *  0.556100 *  0.294700 *  -2.48500    1.000000    
--------------------------------------------------------------------------------



********************************************************************************
*  General input information                                                   *
********************************************************************************

  Species output for all configurations : 

--------------------------------------------------------------------------------
  Species    Type    Atomic    Atomic    Charge       Radii (Angs)     Library
                     Number     Mass       (e)     Cova   Ionic  VDW   Symbol
--------------------------------------------------------------------------------
    Sc       Core       21      44.96   3.000000   1.440  0.000  2.150          
    Cl       Core       17      35.45   1.485000   0.990  0.000  1.650          
    Cl       Shell      17       0.00  -2.485000   0.990  0.000  1.650          
--------------------------------------------------------------------------------


  Lattice summation method               =    Ewald          (3-D)
                                         =    Parry          (2-D)
                                         =    Saunders et al (1-D)
  Accuracy factor for lattice sums       =   12.000


  Analytic derivatives to be used

  Time limit = Infinity

  Maximum range for interatomic potentials =    100000.000000 Angstroms

  General interatomic potentials :

--------------------------------------------------------------------------------
Atom  Types   Potential      Parameter       Value         Units   Cutoffs(Ang)
  1     2                                                            Min /  Max 
--------------------------------------------------------------------------------
Cl   c Cl   s Spring (c-s)  Spring k 2       36.070000    eV*Ang^-2 0.000  0.800
                            Spring k 4       0.0000000    eV*Ang^-4 
--------------------------------------------------------------------------------
Sc   c Cl   s Buckingham    Buckingham A     2456.2200    eV        0.000 12.000
                            Buckingham rho  0.31470000    Ang       
                            Buckingham C     0.0000000    eV*Ang^6  
--------------------------------------------------------------------------------
Cl   s Cl   s Buckingham    Buckingham A     1227.2000    eV        0.000 12.000
                            Buckingham rho  0.32100000    Ang       
                            Buckingham C     14.530000    eV*Ang^6  
--------------------------------------------------------------------------------

********************************************************************************
*  Output for configuration   1                                                *
********************************************************************************


  Components of energy : 

--------------------------------------------------------------------------------
  Interatomic potentials     =          10.39244711 eV    
  Monopole - monopole (real) =         -30.86300284 eV    
  Monopole - monopole (recip)=         -65.52201623 eV    
  Monopole - monopole (total)=         -96.38501907 eV    
--------------------------------------------------------------------------------
  Total lattice energy       =         -85.99257196 eV    
--------------------------------------------------------------------------------
  Total lattice energy       =           -8296.9687 kJ/(mole unit cells)
--------------------------------------------------------------------------------


  Number of variables =       45

  Maximum number of calculations  =          1000
  Maximum Hessian update interval =            10
  Maximum step size               =   1.000000000
  Maximum parameter tolerance     =   0.000010000
  Maximum function  tolerance     =   0.000010000
  Maximum gradient  tolerance     =   0.001000000
  Maximum gradient  component     =   0.010000000

  Symmetry not applied to optimisation

  Cell parameters to be optimised using strains

  Newton-Raphson optimiser to be used

  BFGS hessian update to be used

  Lower half triangular hessian to be used

  Start of bulk optimisation :

  Cycle:      0 Energy:       -85.992572  Gnorm:      8.922860  CPU:    0.018
  ** Hessian calculated **
  Cycle:      1 Energy:       -91.630693  Gnorm:      3.248521  CPU:    0.040
  ** Hessian calculated **
  Cycle:      2 Energy:       -93.407926  Gnorm:      0.241259  CPU:    0.068
  Cycle:      3 Energy:       -93.727483  Gnorm:      0.379189  CPU:    0.089
  Cycle:      4 Energy:       -93.872131  Gnorm:      0.419846  CPU:    0.107
  Cycle:      5 Energy:       -93.916106  Gnorm:      0.216759  CPU:    0.129
  Cycle:      6 Energy:       -93.955402  Gnorm:      0.236635  CPU:    0.152
  Cycle:      7 Energy:       -94.003608  Gnorm:      0.337075  CPU:    0.175
  Cycle:      8 Energy:       -94.063864  Gnorm:      0.300404  CPU:    0.198
  Cycle:      9 Energy:       -94.105073  Gnorm:      0.327302  CPU:    0.217
  Cycle:     10 Energy:       -94.152801  Gnorm:      0.172167  CPU:    0.311
  Cycle:     11 Energy:       -94.162078  Gnorm:      0.129678  CPU:    0.342
  ** Hessian calculated **
  Cycle:     12 Energy:       -94.184232  Gnorm:      0.042568  CPU:    0.393
  Cycle:     13 Energy:       -94.185870  Gnorm:      0.019064  CPU:    0.425
  Cycle:     14 Energy:       -94.186129  Gnorm:      0.004834  CPU:    0.457
  Cycle:     15 Energy:       -94.186171  Gnorm:      0.003759  CPU:    0.489


  **** Optimisation achieved ****


  Final energy =     -94.18617309 eV
  Final Gnorm  =       0.00026742

  Components of energy : 

--------------------------------------------------------------------------------
  Interatomic potentials     =          21.32396821 eV    
  Monopole - monopole (real) =          81.06426209 eV    
  Monopole - monopole (recip)=        -196.57440339 eV    
  Monopole - monopole (total)=        -115.51014130 eV    
--------------------------------------------------------------------------------
  Total lattice energy       =         -94.18617309 eV    
--------------------------------------------------------------------------------
  Total lattice energy       =           -9087.5259 kJ/(mole unit cells)
--------------------------------------------------------------------------------

  Final fractional coordinates of atoms :

--------------------------------------------------------------------------------
   No.  Atomic        x           y          z          Radius
        Label       (Frac)      (Frac)     (Frac)       (Angs) 
--------------------------------------------------------------------------------
     1  Sc    c     0.333900    0.333900    0.333900    0.000000
     2  Sc    c     0.667797    0.667813    0.667799    0.000000
     3  Cl    c     0.075682    0.445383    0.703391    0.000000
     4  Cl    c     0.297892    0.926501    0.556250    0.000000
     5  Cl    c     0.445899    0.703300    0.075286    0.000000
     6  Cl    c     0.555797    0.298410    0.926421    0.000000
     7  Cl    c     0.703804    0.075207    0.445450    0.000000
     8  Cl    c     0.926009    0.556319    0.298315    0.000000
     9  Cl    s     0.065947    0.452571    0.677260    0.000000
    10  Cl    s     0.324076    0.936176    0.549072    0.000000
    11  Cl    s     0.453018    0.677183    0.065599    0.000000
    12  Cl    s     0.548677    0.324526    0.936109    0.000000
    13  Cl    s     0.677621    0.065531    0.452629    0.000000
    14  Cl    s     0.935746    0.549133    0.324445    0.000000
--------------------------------------------------------------------------------

  Final Cartesian lattice vectors (Angstroms) :

        7.492716    0.017674    0.015750
        4.666685    5.870017    0.017236
        4.663123    2.258191    5.420142


  Final cell parameters and derivatives :

--------------------------------------------------------------------------------
       a            7.492753 Angstrom     dE/de1(xx)     0.001502 eV/strain
       b            7.499023 Angstrom     dE/de2(yy)     0.001130 eV/strain
       c            7.498139 Angstrom     dE/de3(zz)     0.001402 eV/strain
       alpha       51.360329 Degrees      dE/de4(yz)     0.000184 eV/strain
       beta        51.381576 Degrees      dE/de5(xz)     0.000594 eV/strain
       gamma       51.379896 Degrees      dE/de6(xy)     0.000958 eV/strain
--------------------------------------------------------------------------------

  Primitive cell volume =           237.388320 Angs**3

  Density of cell =      2.116870 g/cm**3

  Non-primitive cell volume =           237.388320 Angs**3


  Final internal derivatives :

--------------------------------------------------------------------------------
   No.  Atomic          a             b             c           Radius
        Label          (eV)          (eV)          (eV)        (eV/Angs)
--------------------------------------------------------------------------------
      1 Sc    c       0.000000      0.000000      0.000000      0.000000
      2 Sc    c       0.001681      0.001454      0.000124      0.000000
      3 Cl    c      -0.002719     -0.000640     -0.000937      0.000000
      4 Cl    c       0.000986      0.001285      0.000118      0.000000
      5 Cl    c       0.001446      0.000724      0.001502      0.000000
      6 Cl    c      -0.000978      0.000527     -0.000482      0.000000
      7 Cl    c      -0.001726     -0.001514     -0.000663      0.000000
      8 Cl    c       0.000842     -0.000977      0.000232      0.000000
      9 Cl    s       0.003561      0.001253      0.002922      0.000000
     10 Cl    s      -0.002865     -0.003016     -0.001029      0.000000
     11 Cl    s       0.001191      0.003381      0.002375      0.000000
     12 Cl    s      -0.001348     -0.004134     -0.001709      0.000000
     13 Cl    s       0.002463      0.001978      0.000726      0.000000
     14 Cl    s      -0.002693     -0.000158     -0.002951      0.000000
--------------------------------------------------------------------------------
  Maximum abs         0.003561      0.004134      0.002951      0.000000
--------------------------------------------------------------------------------

  Comparison of initial and final structures : 

--------------------------------------------------------------------------------
  Parameter   Initial value   Final value   Difference    Units      Percent
--------------------------------------------------------------------------------
    Volume       235.198534    237.388320     2.189785    Angs**3      0.93
    a              7.453000      7.492753     0.039753    Angstroms    0.53
    b              7.453000      7.499023     0.046023    Angstroms    0.62
    c              7.453000      7.498139     0.045139    Angstroms    0.61
    alpha         51.648000     51.360329    -0.287671    Degrees     -0.56
    beta          51.648000     51.381576    -0.266424    Degrees     -0.52
    gamma         51.648000     51.379896    -0.268104    Degrees     -0.52
      1 x          0.333900      0.333900     0.000000    Fractional   0.00
      1 y          0.333900      0.333900     0.000000    Fractional   0.00
      1 z          0.333900      0.333900     0.000000    Fractional   0.00
      2 x          0.666100      0.667797     0.001697    Fractional   0.25
      2 y          0.666100      0.667813     0.001713    Fractional   0.26
      2 z          0.666100      0.667799     0.001699    Fractional   0.25
      3 x          0.073700      0.075682     0.001982    Fractional   2.69
      3 y          0.443900      0.445383     0.001483    Fractional   0.33
      3 z          0.705300      0.703391     0.001909    Fractional   0.27
      4 x          0.294700      0.297892     0.003192    Fractional   1.08
      4 y          0.926300      0.926501     0.000201    Fractional   0.02
      4 z          0.556100      0.556250     0.000150    Fractional   0.03
      5 x          0.443900      0.445899     0.001999    Fractional   0.45
      5 y          0.705300      0.703300     0.002000    Fractional   0.28
      5 z          0.073700      0.075286     0.001586    Fractional   2.15
      6 x          0.556100      0.555797     0.000303    Fractional   0.05
      6 y          0.294700      0.298410     0.003710    Fractional   1.26
      6 z          0.926300      0.926421     0.000121    Fractional   0.01
      7 x          0.705300      0.703804     0.001496    Fractional   0.21
      7 y          0.073700      0.075207     0.001507    Fractional   2.04
      7 z          0.443900      0.445450     0.001550    Fractional   0.35
      8 x          0.926300      0.926009     0.000291    Fractional   0.03
      8 y          0.556100      0.556319     0.000219    Fractional   0.04
      8 z          0.294700      0.298315     0.003615    Fractional   1.23
      9 x          0.073700      0.065947     0.007753    Fractional  10.52
      9 y          0.443900      0.452571     0.008671    Fractional   1.95
      9 z          0.705300      0.677260     0.028040    Fractional   3.98
     10 x          0.294700      0.324076     0.029376    Fractional   9.97
     10 y          0.926300      0.936176     0.009876    Fractional   1.07
     10 z          0.556100      0.549072     0.007028    Fractional   1.26
     11 x          0.443900      0.453018     0.009118    Fractional   2.05
     11 y          0.705300      0.677183     0.028117    Fractional   3.99
     11 z          0.073700      0.065599     0.008101    Fractional  10.99
     12 x          0.556100      0.548677     0.007423    Fractional   1.33
     12 y          0.294700      0.324526     0.029826    Fractional  10.12
     12 z          0.926300      0.936109     0.009809    Fractional   1.06
     13 x          0.705300      0.677621     0.027679    Fractional   3.92
     13 y          0.073700      0.065531     0.008169    Fractional  11.08
     13 z          0.443900      0.452629     0.008729    Fractional   1.97
     14 x          0.926300      0.935746     0.009446    Fractional   1.02
     14 y          0.556100      0.549133     0.006967    Fractional   1.25
     14 z          0.294700      0.324445     0.029745    Fractional  10.09
--------------------------------------------------------------------------------


  Born effective charge tensors : 

-------------------------------------------------------------------------------
  Atom             x           y             z
-------------------------------------------------------------------------------
    1 Sc    x       2.2285     -0.2571     -0.1710
            y      -0.2560      2.6360     -0.0847
            z      -0.1727     -0.0813      2.7043
-------------------------------------------------------------------------------
    2 Sc    x       2.2285     -0.2571     -0.1710
            y      -0.2560      2.6360     -0.0846
            z      -0.1727     -0.0813      2.7044
-------------------------------------------------------------------------------
    3 Cl    x      -0.8062      0.2256      0.0411
            y       0.2160     -0.8834     -0.1927
            z       0.0553     -0.1841     -0.8334
-------------------------------------------------------------------------------
    4 Cl    x      -0.7835      0.1157      0.0049
            y       0.1062     -0.9970      0.2420
            z      -0.0106      0.2360     -0.7424
-------------------------------------------------------------------------------
    5 Cl    x      -0.6388     -0.0842      0.1250
            y      -0.0662     -0.7556      0.0353
            z       0.1280      0.0294     -1.1285
-------------------------------------------------------------------------------
    6 Cl    x      -0.6388     -0.0842      0.1250
            y      -0.0662     -0.7556      0.0353
            z       0.1280      0.0294     -1.1285
-------------------------------------------------------------------------------
    7 Cl    x      -0.7835      0.1157      0.0049
            y       0.1062     -0.9970      0.2420
            z      -0.0106      0.2360     -0.7424
-------------------------------------------------------------------------------
    8 Cl    x      -0.8062      0.2256      0.0411
            y       0.2160     -0.8834     -0.1927
            z       0.0553     -0.1841     -0.8334
-------------------------------------------------------------------------------




  Elastic Constant Matrix: (Units=GPa)

-------------------------------------------------------------------------------
  Indices      1         2         3         4         5         6    
-------------------------------------------------------------------------------
       1      3.6214    8.6385    8.0518    0.5781   -2.6064   -3.9922
       2      8.6385   31.8741   23.2528   -4.4482   -5.2569  -13.8933
       3      8.0518   23.2528   39.7403   -4.9820  -10.4619   -9.4746
       4      0.5781   -4.4482   -4.9820    7.0058   -1.6207    0.0048
       5     -2.6064   -5.2569  -10.4619   -1.6207    4.2787    3.1180
       6     -3.9922  -13.8933   -9.4746    0.0048    3.1180    6.9568
-------------------------------------------------------------------------------


  Elastic Compliance Matrix: (Units=1/GPa)

-------------------------------------------------------------------------------
  Indices      1         2         3         4         5         6    
-------------------------------------------------------------------------------
       1    4.139658 -2.323081 -1.150848 -3.167637 -2.310781 -2.793293
       2   -2.323081  2.746677 -0.244172  1.461210 -1.287173  4.395552
       3   -1.150848 -0.244172  1.480853  1.927327  4.035931 -0.941456
       4   -3.167637  1.461210  1.927327  3.842313  4.931639  1.512259
       5   -2.310781 -1.287173  4.035931  4.931639 11.609238 -3.606608
       6   -2.793293  4.395552 -0.941456  1.512259 -3.606608  7.652260
-------------------------------------------------------------------------------

  Mechanical properties :

-------------------------------------------------------------------------------
  Convention :                    Reuss         Voigt         Hill
-------------------------------------------------------------------------------
  Bulk  Modulus (GPa)     =       1.07413      17.23576       9.15495
  Shear Modulus (GPa)     =       0.12749       6.00110       3.06430
-------------------------------------------------------------------------------
  Velocity S-wave (km/s)  =       0.24541       1.68371       1.20315
  Velocity P-wave (km/s)  =       0.76663       3.45282       2.50097
-------------------------------------------------------------------------------
  Compressibility (1/GPa) =    0.93098656
-------------------------------------------------------------------------------
  Stress axis :                     x             y             z
-------------------------------------------------------------------------------
  Youngs Moduli (GPa)     =       0.24157       0.36408       0.67529
-------------------------------------------------------------------------------
  Poissons Ratio (x)      =                     0.84578       0.77715
  Poissons Ratio (y)      =       0.56118                     0.16489
  Poissons Ratio (z)      =       0.27801       0.08890
-------------------------------------------------------------------------------


  Piezoelectric Strain Matrix: (Units=C/m**2)

-------------------------------------------------------------------------------
  Indices      1         2         3         4         5         6    
-------------------------------------------------------------------------------
       x    -0.00008   0.00014   0.00001  -0.00009   0.00009  -0.00005
       y    -0.00004  -0.00012   0.00007   0.00004  -0.00006  -0.00002
       z    -0.00006  -0.00018  -0.00004  -0.00005   0.00002   0.00008
-------------------------------------------------------------------------------


  Piezoelectric Stress Matrix: (Units=10**-11 C/N)

-------------------------------------------------------------------------------
  Indices      1         2         3         4         5         6    
-------------------------------------------------------------------------------
       x    -0.04806   0.01066   0.03304   0.05336   0.08812  -0.00159
       y     0.01097  -0.01943   0.00109  -0.01104   0.00386  -0.03303
       z     0.00895  -0.00670  -0.00499  -0.01237  -0.01368  -0.00769
-------------------------------------------------------------------------------


  Static dielectric constant tensor : 

-------------------------------------------------------------------------------
              x         y         z
-------------------------------------------------------------------------------
       x     2.55749  -0.36997  -0.24788
       y    -0.36997   3.14505  -0.11962
       z    -0.24788  -0.11962   3.24356
--------------------------------------------------------------------------------

  High frequency dielectric constant tensor : 

-------------------------------------------------------------------------------
              x         y         z
-------------------------------------------------------------------------------
       x     1.82639  -0.04056  -0.02716
       y    -0.04056   1.89075  -0.01312
       z    -0.02716  -0.01312   1.90154
-------------------------------------------------------------------------------

  Static refractive indices : 

-------------------------------------------------------------------------------
    1 =    1.51614      2 =    1.82309      3 =    1.82312
-------------------------------------------------------------------------------

  High frequency refractive indices : 

-------------------------------------------------------------------------------
    1 =    1.34090      2 =    1.38214      3 =    1.38215
-------------------------------------------------------------------------------


  Time to end of optimisation =       0.5474 seconds

********************************************************************************
*  Defect calculation for configuration   1 :                                  *
********************************************************************************



!!!!!!!!!!!!!!!!!!!!!!!!!!!!!!!!!!!!!!!!!!!!!!!!!!!!!!!!!!!!!!!!!!!!!!!!!!!!!!!!
!! WARNING : Ambiguous vacancy specifier used
!!!!!!!!!!!!!!!!!!!!!!!!!!!!!!!!!!!!!!!!!!!!!!!!!!!!!!!!!!!!!!!!!!!!!!!!!!!!!!!!



!!!!!!!!!!!!!!!!!!!!!!!!!!!!!!!!!!!!!!!!!!!!!!!!!!!!!!!!!!!!!!!!!!!!!!!!!!!!!!!!
!! WARNING : Ambiguous vacancy specifier used
!!!!!!!!!!!!!!!!!!!!!!!!!!!!!!!!!!!!!!!!!!!!!!!!!!!!!!!!!!!!!!!!!!!!!!!!!!!!!!!!

  Total number of defects =      2

  Total charge on defect  =   1.00

  Defect centre is at   0.0737   0.4439   0.7053  Frac

  Region 1 radius =  10.0000      Number of ions =    263

  Region 2 radius =  24.0000      Number of ions =   3174

  Region 2a mode = 4 : screened electrostatics due to region 1 
                       neglect correction to region 1 forces from 2a
                       region 2a displacements based on defects only

  Region 2a ions will only interact with defects in region 1

  Vacancies:

--------------------------------------------------------------------------------
    Specification type     Symbol/Number         x          y          z
--------------------------------------------------------------------------------
    Atom                    Cl    core
    Atom                    Cl    shel
--------------------------------------------------------------------------------


  Components of defect energy : 

--------------------------------------------------------------------------------
  Region 1 - region 1                   =     15.63899246 eV
  Region 1 - region 2a (unrelaxed)      =     -6.10451799 eV
  Region 1 - 2a (relaxed - correction)  =     -0.52416897 eV
  Region 1 (Total)                      =      9.01030550 eV
  Region 2a                             =      0.26213665 eV
  Region 2b                             =     -0.19638630 eV
--------------------------------------------------------------------------------
  Total defect energy                   =      9.07605584 eV
--------------------------------------------------------------------------------

  Largest displacement in region 2 =   0.0191 Angstroms


  Number of variables =      789

  Maximum number of calculations  =        1000
  Maximum Hessian update interval =          10
  Maximum step size               =   1.0000000
  Maximum parameter tolerance     =   0.0000100
  Maximum function  tolerance     =   0.0000100
  Maximum gradient  tolerance     =   0.0010000

  Symmetry adapted optimisation

  Newton-Raphson optimiser to be used

  BFGS hessian update to be used

  Lower half triangular hessian to be used

  Start of defect optimisation :

  Cycle:      0 Defect Energy:   9.076056  Gnorm:     0.020594  CPU:    3.238
  ** Hessian calculated **
  Cycle:      1 Defect Energy:   8.072586  Gnorm:     0.016683  CPU:   14.755
  Cycle:      2 Defect Energy:   6.872412  Gnorm:     0.010231  CPU:   23.730
  Cycle:      3 Defect Energy:   6.010891  Gnorm:     0.001244  CPU:   30.166
  Cycle:      4 Defect Energy:   5.976390  Gnorm:     0.000975  CPU:   31.698
  Cycle:      5 Defect Energy:   5.940199  Gnorm:     0.000723  CPU:   33.107
  Cycle:      6 Defect Energy:   5.916705  Gnorm:     0.000603  CPU:   34.466
  Cycle:      7 Defect Energy:   5.899680  Gnorm:     0.000521  CPU:   35.877
  Cycle:      8 Defect Energy:   5.894772  Gnorm:     0.000440  CPU:   37.129
  ** Hessian calculated **
  Cycle:      9 Defect Energy:   5.887534  Gnorm:     0.000309  CPU:   40.241
  Cycle:     10 Defect Energy:   5.883692  Gnorm:     0.000219  CPU:   41.654
  Cycle:     11 Defect Energy:   5.881545  Gnorm:     0.000155  CPU:   45.798
  Cycle:     12 Defect Energy:   5.880365  Gnorm:     0.000110  CPU:   47.339
  Cycle:     13 Defect Energy:   5.879717  Gnorm:     0.000078  CPU:   48.808
  Cycle:     14 Defect Energy:   5.879357  Gnorm:     0.000055  CPU:   50.272
  Cycle:     15 Defect Energy:   5.879162  Gnorm:     0.000039  CPU:   51.857
  Cycle:     16 Defect Energy:   5.879057  Gnorm:     0.000027  CPU:   53.322
  Cycle:     17 Defect Energy:   5.879002  Gnorm:     0.000019  CPU:   54.758
  Cycle:     18 Defect Energy:   5.878972  Gnorm:     0.000013  CPU:   56.321
  ** Hessian calculated **
  Cycle:     19 Defect Energy:   5.878956  Gnorm:     0.000009  CPU:   59.330


  **** Optimisation achieved ****


  Final defect energy  =        5.87894686
  Final defect Gnorm   =        0.00000662

  Components of defect energy : 

--------------------------------------------------------------------------------
  Region 1 - region 1                   =     12.23002036 eV
  Region 1 - region 2a (unrelaxed)      =     -5.91640714 eV
  Region 1 - 2a (relaxed - correction)  =     -0.47604429 eV
  Region 1 (Total)                      =      5.83756893 eV
  Region 2a                             =      0.23799889 eV
  Region 2b                             =     -0.19662096 eV
--------------------------------------------------------------------------------
  Total defect energy                   =      5.87894686 eV
--------------------------------------------------------------------------------

  Largest displacement in region 2 =   0.0191 Angstroms

  Final coordinates of region 1 :

--------------------------------------------------------------------------------
   No.  Atomic        x           y           z          Radius      Charge
        Label       (Angs)      (Angs)      (Angs)       (Angs)       (e) 
--------------------------------------------------------------------------------
     1  Sc    c     3.309514    5.638709    3.787150    0.000000    3.000000
     2  Sc    c     5.636529    2.289487    1.552002    0.000000    3.000000
     3  Cl    c     3.904475    3.870386    2.217508    0.000000    1.485000
     4  Cl    c     4.219909    6.431458    5.920734    0.000000    1.485000
     5  Cl    c     7.695191    1.457177    2.593662    0.000000    1.485000
     6  Cl    c     6.869194    4.099583    0.415041    0.000000    1.485000
     7  Cl    c     4.669942    7.253226    2.512731    0.000000    1.485000
     8  Cl    c     2.206202    3.897711    5.127322    0.000000    1.485000
     9  Cl    c     4.488376    0.625868    2.949786    0.000000    1.485000
    10  Cl    c     9.834670    3.875197    5.024521    0.000000    1.485000
    11  Cl    c     4.842170    3.625385    7.819021    0.000000    1.485000
    12  Cl    c     9.143348    6.677146    3.013637    0.000000    1.485000
    13  Cl    c     6.894220    0.684539    5.860682    0.000000    1.485000
    14  Cl    c     8.087613    6.180614    7.055012    0.000000    1.485000
    15  Sc    c     2.762480    4.927836    7.397294    0.000000    3.000000
    16  Sc    c     6.611956   -0.566056    3.727819    0.000000    3.000000
    17  Cl    c     1.360541    6.809566    2.896026    0.000000    1.485000
    18  Cl    c     5.100971    1.459823   -0.680366    0.000000    1.485000
    19  Sc    c    11.242158    5.435070    3.638675    0.000000    3.000000
    20  Cl    c    10.914309    3.934853    1.652207    0.000000    1.485000
    21  Sc    c    10.284179    4.974054    7.245588    0.000000    3.000000
    22  Cl    c     3.414351    0.304375    7.045674    0.000000    1.485000
    23  Sc    c     2.695770    8.666131    1.732081    0.000000    3.000000
    24  Cl    c     9.140899    3.074198    8.414943    0.000000    1.485000
    25  Sc    c     6.547950    3.170666   -1.935968    0.000000    3.000000
    26  Cl    c     7.032602    9.704100    5.035043    0.000000    1.485000
    27  Sc    c     3.718414    1.744356    9.078955    0.000000    3.000000
    28  Sc    c     5.580186   -0.937853    7.287954    0.000000    3.000000
    29  Cl    c     1.623079    3.023091    8.507721    0.000000    1.485000
    30  Cl    c     5.200507   -2.095004    5.082926    0.000000    1.485000
    31  Cl    c     4.469245    4.457850   -2.405604    0.000000    1.485000
    32  Cl    c     2.381153    7.449036   -0.415160    0.000000    1.485000
    33  Cl    c     8.076186    9.779381    1.658440    0.000000    1.485000
    34  Cl    c     3.105974    6.469016    9.311964    0.000000    1.485000
    35  Cl    c     5.917785    0.569665    9.254780    0.000000    1.485000
    36  Cl    c     0.205622    1.452472    2.422807    0.000000    1.485000
    37  Cl    c     3.046795    9.994784    3.815705    0.000000    1.485000
    38  Cl    c     8.813622   -1.701451    3.854913    0.000000    1.485000
    39  Cl    c     0.669832    6.236521    7.038259    0.000000    1.485000
    40  Sc    c    10.280381    8.590589    1.833249    0.000000    3.000000
    41  Cl    c     6.336317   -1.875260    1.621185    0.000000    1.485000
    42  Cl    c     5.907762    7.791030   -1.566909    0.000000    1.485000
    43  Cl    c     8.681237    1.931558   -1.567980    0.000000    1.485000
    44  Cl    c    11.629139    6.557866    5.842494    0.000000    1.485000
    45  Cl    c     6.314447    8.917000    8.418138    0.000000    1.485000
    46  Cl    c     9.868705    7.469004   -0.370345    0.000000    1.485000
    47  Sc    c     8.406639    7.679608    9.056161    0.000000    3.000000
    48  Cl    c     7.045850    6.093908   10.443676    0.000000    1.485000
    49  Cl    c    11.976762    0.840200    3.021951    0.000000    1.485000
    50  Cl    c     4.177459   10.152888    0.402779    0.000000    1.485000
    51  Cl    c    10.918831    0.333675    7.044501    0.000000    1.485000
    52  Cl    c     7.703722    5.109753   -2.970772    0.000000    1.485000
    53  Cl    c    -0.495264    4.261356    0.418960    0.000000    1.485000
    54  Cl    c    12.358463    7.325925    2.440408    0.000000    1.485000
    55  Cl    c    -1.562397    4.192303    3.787867    0.000000    1.485000
    56  Cl    c     1.267536   -1.650460    3.788546    0.000000    1.485000
    57  Cl    c     1.256459    1.945944   -1.600468    0.000000    1.485000
    58  Cl    c    10.587003    6.457886    9.238815    0.000000    1.485000
    59  Cl    c    13.411322    4.208741    3.839002    0.000000    1.485000
    60  Cl    c    10.574151   10.053426    3.845267    0.000000    1.485000
    61  Sc    c     8.401388   11.290374    3.643878    0.000000    3.000000
    62  Cl    c    -0.520365    0.671140    5.811422    0.000000    1.485000
    63  Sc    c    13.118663    2.729896    1.829629    0.000000    3.000000
    64  Cl    c     2.302766   -1.566265    0.407482    0.000000    1.485000
    65  Sc    c     7.450977   10.827301    7.245869    0.000000    3.000000
    66  Cl    c    12.359186    3.704413    7.827832    0.000000    1.485000
    67  Cl    c     9.531617    9.555058    7.834617    0.000000    1.485000
    68  Cl    c     7.683887   -2.166733    7.830410    0.000000    1.485000
    69  Sc    c     3.752663    9.044880   -1.817115    0.000000    3.000000
    70  Cl    c     4.123450    2.925668   11.238485    0.000000    1.485000
    71  Sc    c     5.614189    6.363191   -3.607247    0.000000    3.000000
    72  Cl    c     2.059154    9.572127    7.820747    0.000000    1.485000
    73  Cl    c     9.813861   -1.528709    0.412400    0.000000    1.485000
    74  Sc    c    11.231628    1.818749    9.045239    0.000000    3.000000
    75  Sc    c     0.925337    7.723763    9.064852    0.000000    3.000000
    76  Sc    c     8.509764   -3.148409    1.802470    0.000000    3.000000
    77  Cl    c     0.554724    9.904647    1.576382    0.000000    1.485000
    78  Cl    c     6.294816    1.690511   -3.909220    0.000000    1.485000
    79  Sc    c    -1.894347    2.691453    1.801616    0.000000    3.000000
    80  Sc    c    -0.931631   -0.455665    3.611585    0.000000    3.000000
    81  Cl    c    12.697822    1.619757   -0.378430    0.000000    1.485000
    82  Cl    c     6.315364   12.542001    3.026505    0.000000    1.485000
    83  Cl    c     2.368388    0.177071   10.463554    0.000000    1.485000
    84  Cl    c     4.458765   -2.817753    8.470126    0.000000    1.485000
    85  Cl    c    -0.422567    9.686259    5.025675    0.000000    1.485000
    86  Cl    c     7.322658   -1.400354   -2.373264    0.000000    1.485000
    87  Cl    c     5.262101   12.036063    7.049931    0.000000    1.485000
    88  Cl    c     9.860502    0.243957   10.434174    0.000000    1.485000
    89  Sc    c     0.901317   11.307951    3.648215    0.000000    3.000000
    90  Sc    c     8.473935    0.453727   -3.601925    0.000000    3.000000
    91  Cl    c     3.420177    7.548642   -3.794749    0.000000    1.485000
    92  Cl    c    11.980916    4.454952   -2.368477    0.000000    1.485000
    93  Sc    c    -0.934424    3.158905   -1.801062    0.000000    3.000000
    94  Cl    c     0.214678    5.056539   -2.969196    0.000000    1.485000
    95  Cl    c     3.034962   -0.785308   -2.969934    0.000000    1.485000
    96  Cl    c     8.804137   12.407146    5.847637    0.000000    1.485000
    97  Cl    c    11.629227   10.178106    0.446332    0.000000    1.485000
    98  Cl    c     8.094683    2.590052   12.440240    0.000000    1.485000
    99  Sc    c     0.941368   -3.157813    1.800861    0.000000    3.000000
   100  Sc    c    11.244509    9.055235   -1.764220    0.000000    3.000000
   101  Cl    c    -2.615273    7.288296    2.415593    0.000000    1.485000
   102  Cl    c     3.033608   -4.394650    2.420524    0.000000    1.485000
   103  Cl    c     8.804655    8.806613   11.251617    0.000000    1.485000
   104  Cl    c    14.454276    4.329664    0.441128    0.000000    1.485000
   105  Cl    c    12.692291   -1.990265    5.030545    0.000000    1.485000
   106  Cl    c     9.153674   10.305828   -2.365240    0.000000    1.485000
   107  Cl    c    -0.410821    6.087468   10.407330    0.000000    1.485000
   108  Cl    c     7.325357   -4.986998    3.016764    0.000000    1.485000
   109  Sc    c    14.069659   -0.415762    3.642026    0.000000    3.000000
   110  Cl    c    -2.617600    3.682310    7.810022    0.000000    1.485000
   111  Cl    c     0.203167   -2.163412    7.809926    0.000000    1.485000
   112  Sc    c    13.114051   -0.878662    7.241956    0.000000    3.000000
   113  Sc    c     7.455483    7.220911   12.657987    0.000000    3.000000
   114  Cl    c    11.618919    2.958856   11.238663    0.000000    1.485000
   115  Cl    c    14.451497    0.719489    5.843319    0.000000    1.485000
   116  Sc    c    -0.043477   10.830088    7.232081    0.000000    3.000000
   117  Sc    c     9.409681   -2.678375   -1.791362    0.000000    3.000000
   118  Cl    c    -3.011437    0.805406    3.002797    0.000000    1.485000
   119  Cl    c    -2.284459    1.575175   -0.403927    0.000000    1.485000
   120  Cl    c     1.333209   12.406527    5.848514    0.000000    1.485000
   121  Cl    c    10.551236   -0.780812   -2.967127    0.000000    1.485000
   122  Cl    c     6.971525    7.940790   -4.979991    0.000000    1.485000
   123  Cl    c     4.890783   10.921952   -2.995919    0.000000    1.485000
   124  Cl    c     5.271831    8.434542   12.443739    0.000000    1.485000
   125  Cl    c    -1.166732    8.929915    8.417037    0.000000    1.485000
   126  Cl    c    -1.231206   -1.922827    1.602475    0.000000    1.485000
   127  Sc    c     0.945257    0.453916   -3.607573    0.000000    3.000000
   128  Cl    c     8.044417   -4.248147   -0.392456    0.000000    1.485000
   129  Cl    c     1.663049   10.297743   -2.364082    0.000000    1.485000
   130  Cl    c     5.231357    5.194839   -5.779027    0.000000    1.485000
   131  Cl    c    10.918862    7.555594   -3.750078    0.000000    1.485000
   132  Sc    c    -3.765411    5.404058    3.609517    0.000000    3.000000
   133  Cl    c    -3.325168    6.514046    5.813234    0.000000    1.485000
   134  Sc    c     1.896419   -2.697068   -1.802261    0.000000    3.000000
   135  Sc    c     2.775376    1.341852   12.658448    0.000000    3.000000
   136  Sc    c     6.569286   -4.068946    9.044266    0.000000    3.000000
   137  Cl    c     2.315967    2.041684   -4.982597    0.000000    1.485000
   138  Cl    c    15.196285    1.476458    2.441942    0.000000    1.485000
   139  Cl    c     9.535516   13.164130    2.437638    0.000000    1.485000
   140  Cl    c     1.317054    8.821414   11.265263    0.000000    1.485000
   141  Cl    c    10.566794   -4.411681    2.418880    0.000000    1.485000
   142  Cl    c     2.057897   13.164719    2.442980    0.000000    1.485000
   143  Cl    c     9.814228    2.062512   -4.966213    0.000000    1.485000
   144  Cl    c    -1.557463    0.591001    9.190399    0.000000    1.485000
   145  Sc    c    -1.890309   -0.915752    7.211786    0.000000    3.000000
   146  Cl    c    -1.560605    7.792081   -1.592659    0.000000    1.485000
   147  Cl    c    13.414843    0.611806    9.236576    0.000000    1.485000
   148  Cl    c     4.089889   -3.891900   -1.603451    0.000000    1.485000
   149  Cl    c     7.755772   12.298832    9.245385    0.000000    1.485000
   150  Cl    c    13.413025    7.822657   -1.554954    0.000000    1.485000
   151  Sc    c    14.075352    3.200708   -1.769275    0.000000    3.000000
   152  Cl    s     4.001701    3.886300    2.294403    0.000000   -2.485000
   153  Cl    s     4.066862    6.279141    5.837343    0.000000   -2.485000
   154  Cl    s     7.469426    1.407693    2.580823    0.000000   -2.485000
   155  Cl    s     4.454936    7.211037    2.562198    0.000000   -2.485000
   156  Cl    s     6.756436    3.911948    0.365518    0.000000   -2.485000
   157  Cl    s     2.326266    4.090320    5.155451    0.000000   -2.485000
   158  Cl    s     4.699709    0.687544    2.888732    0.000000   -2.485000
   159  Cl    s     4.630498    3.598284    7.861991    0.000000   -2.485000
   160  Cl    s     6.791084    0.502975    5.799037    0.000000   -2.485000
   161  Cl    s     9.945999    4.042291    5.074451    0.000000   -2.485000
   162  Cl    s     9.340773    6.715264    2.978735    0.000000   -2.485000
   163  Cl    s     8.243302    6.195442    7.189048    0.000000   -2.485000
   164  Cl    s     1.594345    6.818329    2.901287    0.000000   -2.485000
   165  Cl    s     5.224288    1.624578   -0.569213    0.000000   -2.485000
   166  Cl    s    11.070378    3.954364    1.791058    0.000000   -2.485000
   167  Cl    s     3.575433    0.319574    7.189807    0.000000   -2.485000
   168  Cl    s     9.344599    3.118057    8.376839    0.000000   -2.485000
   169  Cl    s     7.143682    9.873378    5.085872    0.000000   -2.485000
   170  Cl    s     1.836339    3.076692    8.463958    0.000000   -2.485000
   171  Cl    s     5.323240   -1.912853    5.126687    0.000000   -2.485000
   172  Cl    s    11.514603    6.380485    5.788451    0.000000   -2.485000
   173  Cl    s     2.489354    7.627499   -0.351241    0.000000   -2.485000
   174  Cl    s     4.682238    4.487218   -2.442736    0.000000   -2.485000
   175  Cl    s     5.748490    0.548698    9.110659    0.000000   -2.485000
   176  Cl    s     8.236031    9.796661    1.795708    0.000000   -2.485000
   177  Cl    s     2.947317    6.437755    9.159844    0.000000   -2.485000
   178  Cl    s     8.638360   -1.708815    3.718749    0.000000   -2.485000
   179  Cl    s     0.831957    6.241300    7.181704    0.000000   -2.485000
   180  Cl    s     6.489977   -1.858200    1.772529    0.000000   -2.485000
   181  Cl    s     2.887945    9.982102    3.666074    0.000000   -2.485000
   182  Cl    s     8.520286    1.921858   -1.715826    0.000000   -2.485000
   183  Cl    s     5.746831    7.777650   -1.713497    0.000000   -2.485000
   184  Cl    s     6.518858    8.957985    8.382174    0.000000   -2.485000
   185  Cl    s     0.007031    1.414632    2.458106    0.000000   -2.485000
   186  Cl    s     9.979161    7.639624   -0.314429    0.000000   -2.485000
   187  Cl    s     4.047209    9.976768    0.354920    0.000000   -2.485000
   188  Cl    s     7.489145    5.053366   -2.937079    0.000000   -2.485000
   189  Cl    s     7.157973    6.266680   10.491621    0.000000   -2.485000
   190  Cl    s    12.148034    7.282630    2.479950    0.000000   -2.485000
   191  Cl    s    12.179146    0.882788    2.983845    0.000000   -2.485000
   192  Cl    s    11.075728    0.352262    7.183928    0.000000   -2.485000
   193  Cl    s    10.423691    6.439478    9.094778    0.000000   -2.485000
   194  Cl    s    13.246966    4.194774    3.696385    0.000000   -2.485000
   195  Cl    s    10.412817   10.036619    3.700333    0.000000   -2.485000
   196  Cl    s    -0.605884    4.093084    0.368894    0.000000   -2.485000
   197  Cl    s    12.148192    3.667118    7.866514    0.000000   -2.485000
   198  Cl    s     9.322292    9.513817    7.875409    0.000000   -2.485000
   199  Cl    s     1.107055   -1.666986    3.650730    0.000000   -2.485000
   200  Cl    s    -1.716611    4.173479    3.648867    0.000000   -2.485000
   201  Cl    s     1.101078    1.931644   -1.735359    0.000000   -2.485000
   202  Cl    s     7.471288   -2.203598    7.868098    0.000000   -2.485000
   203  Cl    s     4.010212    2.747493   11.180164    0.000000   -2.485000
   204  Cl    s    -0.630546    0.500060    5.755411    0.000000   -2.485000
   205  Cl    s     1.852424    9.526233    7.863936    0.000000   -2.485000
   206  Cl    s     2.193541   -1.734916    0.356899    0.000000   -2.485000
   207  Cl    s     9.699464   -1.706275    0.366019    0.000000   -2.485000
   208  Cl    s     0.729097    9.901788    1.716077    0.000000   -2.485000
   209  Cl    s     6.447616    1.718986   -3.748538    0.000000   -2.485000
   210  Cl    s     2.487405    0.358606   10.505668    0.000000   -2.485000
   211  Cl    s     4.668548   -2.765623    8.424015    0.000000   -2.485000
   212  Cl    s    12.810336    1.792130   -0.323343    0.000000   -2.485000
   213  Cl    s     6.521056   12.580306    2.990382    0.000000   -2.485000
   214  Cl    s     3.588012    7.568216   -3.649874    0.000000   -2.485000
   215  Cl    s    -0.309385    9.862847    5.075872    0.000000   -2.485000
   216  Cl    s     7.530149   -1.357908   -2.414212    0.000000   -2.485000
   217  Cl    s     5.422735   12.051388    7.188450    0.000000   -2.485000
   218  Cl    s     9.974741    0.418175   10.484193    0.000000   -2.485000
   219  Cl    s     8.688370   12.229494    5.793501    0.000000   -2.485000
   220  Cl    s    11.514103    9.999848    0.394858    0.000000   -2.485000
   221  Cl    s    12.184777    4.495813   -2.406602    0.000000   -2.485000
   222  Cl    s     2.829563   -0.826048   -2.934141    0.000000   -2.485000
   223  Cl    s     0.009595    5.013608   -2.931746    0.000000   -2.485000
   224  Cl    s     8.690706    8.629310   11.195067    0.000000   -2.485000
   225  Cl    s    14.340552    4.151944    0.390084    0.000000   -2.485000
   226  Cl    s     8.253636    2.605930   12.580234    0.000000   -2.485000
   227  Cl    s    12.806247   -1.816766    5.082721    0.000000   -2.485000
   228  Cl    s     2.827341   -4.434036    2.456443    0.000000   -2.485000
   229  Cl    s    -0.296942    6.265468   10.459296    0.000000   -2.485000
   230  Cl    s    -2.818889    7.247200    2.453908    0.000000   -2.485000
   231  Cl    s     7.534920   -4.945228    2.976029    0.000000   -2.485000
   232  Cl    s    11.505990    2.781676   11.183069    0.000000   -2.485000
   233  Cl    s    -2.800205    0.849426    2.962642    0.000000   -2.485000
   234  Cl    s    14.338631    0.542475    5.789663    0.000000   -2.485000
   235  Cl    s     9.359222   10.344862   -2.402391    0.000000   -2.485000
   236  Cl    s    -2.168925    1.752718   -0.349058    0.000000   -2.485000
   237  Cl    s     1.215153   12.228547    5.790260    0.000000   -2.485000
   238  Cl    s    10.336429   -0.821314   -2.931822    0.000000   -2.485000
   239  Cl    s    -1.068766   -1.906002    1.746867    0.000000   -2.485000
   240  Cl    s    -0.952757    8.973288    8.381419    0.000000   -2.485000
   241  Cl    s     8.164025   -4.070643   -0.336728    0.000000   -2.485000
   242  Cl    s    14.984553    1.436423    2.479382    0.000000   -2.485000
   243  Cl    s     6.853050    7.759656   -5.025997    0.000000   -2.485000
   244  Cl    s     4.679590   10.872836   -2.951957    0.000000   -2.485000
   245  Cl    s    -0.002444   -2.202521    7.847179    0.000000   -2.485000
   246  Cl    s    -2.821933    3.642883    7.847817    0.000000   -2.485000
   247  Cl    s     1.876453   10.333233   -2.402722    0.000000   -2.485000
   248  Cl    s     5.343493    5.374303   -5.719844    0.000000   -2.485000
   249  Cl    s     9.325652   13.120699    2.478922    0.000000   -2.485000
   250  Cl    s    11.079325    7.573815   -3.609203    0.000000   -2.485000
   251  Cl    s    13.249985    0.594837    9.093513    0.000000   -2.485000
   252  Cl    s     5.431822    8.449732   12.583311    0.000000   -2.485000
   253  Cl    s     1.204410    8.642588   11.199670    0.000000   -2.485000
   254  Cl    s    10.350472   -4.443234    2.453406    0.000000   -2.485000
   255  Cl    s     7.594383   12.279686    9.099444    0.000000   -2.485000
   256  Cl    s    -3.439655    6.341546    5.758758    0.000000   -2.485000
   257  Cl    s    13.249660    7.808072   -1.697600    0.000000   -2.485000
   258  Cl    s     2.202798    1.868728   -5.032414    0.000000   -2.485000
   259  Cl    s     1.849731   13.116964    2.484061    0.000000   -2.485000
   260  Cl    s     9.696817    1.885556   -5.013207    0.000000   -2.485000
   261  Cl    s    -1.718732    0.571910    9.050191    0.000000   -2.485000
   262  Cl    s     3.928253   -3.907631   -1.742132    0.000000   -2.485000
   263  Cl    s    -1.717552    7.774528   -1.732720    0.000000   -2.485000
--------------------------------------------------------------------------------

  Final coordinates of symmetry reduced region 1 (relative to defect centre):

--------------------------------------------------------------------------------
   No.  Atomic        x           y           z          Charge
        Label       (Angs)      (Angs)      (Angs)         (e) 
--------------------------------------------------------------------------------
     1  Sc    c    -2.603142    1.439004   -0.044488    3.000000
     2  Sc    c    -0.276127   -1.910218   -2.279636    3.000000
     3  Cl    c    -2.008181   -0.329319   -1.614130    1.485000
     4  Cl    c    -1.692747    2.231753    2.089096    1.485000
     5  Cl    c     1.782536   -2.742528   -1.237976    1.485000
     6  Cl    c     0.956538   -0.100122   -3.416597    1.485000
     7  Cl    c    -1.242714    3.053521   -1.318907    1.485000
     8  Cl    c    -3.706453   -0.301994    1.295684    1.485000
     9  Cl    c    -1.424280   -3.573837   -0.881852    1.485000
    10  Cl    c     3.922015   -0.324508    1.192883    1.485000
    11  Cl    c    -1.070485   -0.574320    3.987383    1.485000
    12  Cl    c     3.230693    2.477441   -0.818001    1.485000
    13  Cl    c     0.981564   -3.515166    2.029045    1.485000
    14  Cl    c     2.174958    1.980909    3.223374    1.485000
    15  Sc    c    -3.150176    0.728131    3.565656    3.000000
    16  Sc    c     0.699301   -4.765761   -0.103819    3.000000
    17  Cl    c    -4.552115    2.609861   -0.935612    1.485000
    18  Cl    c    -0.811684   -2.739882   -4.512004    1.485000
    19  Sc    c     5.329502    1.235365   -0.192963    3.000000
    20  Cl    c     5.001654   -0.264852   -2.179431    1.485000
    21  Sc    c     4.371524    0.774349    3.413950    3.000000
    22  Cl    c    -2.498305   -3.895330    3.214036    1.485000
    23  Sc    c    -3.216886    4.466426   -2.099557    3.000000
    24  Cl    c     3.228244   -1.125507    4.583305    1.485000
    25  Sc    c     0.635294   -1.029039   -5.767606    3.000000
    26  Cl    c     1.119946    5.504395    1.203405    1.485000
    27  Sc    c    -2.194241   -2.455349    5.247317    3.000000
    28  Sc    c    -0.332470   -5.137558    3.456316    3.000000
    29  Cl    c    -4.289577   -1.176614    4.676083    1.485000
    30  Cl    c    -0.712148   -6.294709    1.251288    1.485000
    31  Cl    c    -1.443411    0.258145   -6.237242    1.485000
    32  Cl    c    -3.531502    3.249331   -4.246798    1.485000
    33  Cl    c     2.163531    5.579676   -2.173198    1.485000
    34  Cl    c    -2.806681    2.269311    5.480326    1.485000
    35  Cl    c     0.005130   -3.630040    5.423142    1.485000
    36  Cl    c    -5.707034   -2.747233   -1.408831    1.485000
    37  Cl    c    -2.865861    5.795079   -0.015933    1.485000
    38  Cl    c     2.900966   -5.901156    0.023275    1.485000
    39  Cl    c    -5.242823    2.036816    3.206621    1.485000
    40  Sc    c     4.367726    4.390884   -1.998389    3.000000
    41  Cl    c     0.423662   -6.074965   -2.210452    1.485000
    42  Cl    c    -0.004893    3.591325   -5.398547    1.485000
    43  Cl    c     2.768582   -2.268147   -5.399618    1.485000
    44  Cl    c     5.716483    2.358160    2.010856    1.485000
    45  Cl    c     0.401792    4.717295    4.586500    1.485000
    46  Cl    c     3.956049    3.269299   -4.201983    1.485000
    47  Sc    c     2.493984    3.479903    5.224523    3.000000
    48  Cl    c     1.133194    1.894203    6.612039    1.485000
    49  Cl    c     6.064107   -3.359505   -0.809687    1.485000
    50  Cl    c    -1.735196    5.953183   -3.428859    1.485000
    51  Cl    c     5.006175   -3.866030    3.212863    1.485000
    52  Cl    c     1.791067    0.910048   -6.802410    1.485000
    53  Cl    c    -6.407920    0.061651   -3.412678    1.485000
    54  Cl    c     6.445808    3.126220   -1.391230    1.485000
    55  Cl    c    -7.475052   -0.007402   -0.043771    1.485000
    56  Cl    c    -4.645119   -5.850165   -0.043091    1.485000
    57  Cl    c    -4.656196   -2.253761   -5.432106    1.485000
    58  Cl    c     4.674348    2.258180    5.407178    1.485000
    59  Cl    c     7.498666    0.009036    0.007364    1.485000
    60  Cl    c     4.661496    5.853721    0.013629    1.485000
    61  Sc    c     2.488732    7.090669   -0.187759    3.000000
    62  Cl    c    -6.433021   -3.528565    1.979784    1.485000
    63  Sc    c     7.206008   -1.469809   -2.002009    3.000000
    64  Cl    c    -3.609890   -5.765970   -3.424155    1.485000
    65  Sc    c     1.538321    6.627596    3.414231    3.000000
    66  Cl    c     6.446531   -0.495292    3.996194    1.485000
    67  Cl    c     3.618961    5.355353    4.002980    1.485000
    68  Cl    c     1.771231   -6.366438    3.998772    1.485000
    69  Sc    c    -2.159993    4.845175   -5.648753    3.000000
    70  Cl    c    -1.789205   -1.274037    7.406847    1.485000
    71  Sc    c    -0.298467    2.163486   -7.438885    3.000000
    72  Cl    c    -3.853502    5.372422    3.989109    1.485000
    73  Cl    c     3.901206   -5.728415   -3.419238    1.485000
    74  Sc    c     5.318973   -2.380956    5.213601    3.000000
    75  Sc    c    -4.987319    3.524058    5.233214    3.000000
    76  Sc    c     2.597108   -7.348114   -2.029168    3.000000
    77  Cl    c    -5.357931    5.704942   -2.255255    1.485000
    78  Cl    c     0.382160   -2.509194   -7.740858    1.485000
    79  Sc    c    -7.807002   -1.508253   -2.030022    3.000000
    80  Sc    c    -6.844286   -4.655370   -0.220053    3.000000
    81  Cl    c     6.785166   -2.579948   -4.210068    1.485000
    82  Cl    c     0.402709    8.342296   -0.805133    1.485000
    83  Cl    c    -3.544267   -4.022634    6.631916    1.485000
    84  Cl    c    -1.453891   -7.017458    4.638488    1.485000
    85  Cl    c    -6.335222    5.486554    1.194038    1.485000
    86  Cl    c     1.410003   -5.600059   -6.204902    1.485000
    87  Cl    c    -0.650554    7.836358    3.218293    1.485000
    88  Cl    c     3.947846   -3.955748    6.602536    1.485000
    89  Sc    c    -5.011339    7.108246   -0.183423    3.000000
    90  Sc    c     2.561280   -3.745978   -7.433563    3.000000
    91  Cl    c    -2.492478    3.348937   -7.626387    1.485000
    92  Cl    c     6.068261    0.255247   -6.200115    1.485000
    93  Sc    c    -6.847079   -1.040800   -5.632700    3.000000
    94  Cl    c    -5.697978    0.856834   -6.800834    1.485000
    95  Cl    c    -2.877693   -4.985013   -6.801571    1.485000
    96  Cl    c     2.891482    8.207441    2.015999    1.485000
    97  Cl    c     5.716572    5.978401   -3.385306    1.485000
    98  Cl    c     2.182027   -1.609653    8.608602    1.485000
    99  Sc    c    -4.971288   -7.357518   -2.030777    3.000000
   100  Sc    c     5.331854    4.855530   -5.595858    3.000000
   101  Cl    c    -8.527929    3.088590   -1.416045    1.485000
   102  Cl    c    -2.879047   -8.594355   -1.411114    1.485000
   103  Cl    c     2.891999    4.606908    7.419979    1.485000
   104  Cl    c     8.541620    0.129959   -3.390510    1.485000
   105  Cl    c     6.779635   -6.189970    1.198907    1.485000
   106  Cl    c     3.241018    6.106123   -6.196878    1.485000
   107  Cl    c    -6.323477    1.887763    6.575692    1.485000
   108  Cl    c     1.412702   -9.186703   -0.814874    1.485000
   109  Sc    c     8.157003   -4.615467   -0.189612    3.000000
   110  Cl    c    -8.530255   -0.517395    3.978384    1.485000
   111  Cl    c    -5.709489   -6.363117    3.978288    1.485000
   112  Sc    c     7.201396   -5.078367    3.410318    3.000000
   113  Sc    c     1.542827    3.021206    8.826349    3.000000
   114  Cl    c     5.706264   -1.240849    7.407025    1.485000
   115  Cl    c     8.538841   -3.480216    2.011681    1.485000
   116  Sc    c    -5.956133    6.630383    3.400443    3.000000
   117  Sc    c     3.497026   -6.878080   -5.623000    3.000000
   118  Cl    c    -8.924092   -3.394299   -0.828841    1.485000
   119  Cl    c    -8.197115   -2.624530   -4.235565    1.485000
   120  Cl    c    -4.579446    8.206822    2.016876    1.485000
   121  Cl    c     4.638580   -4.980518   -6.798765    1.485000
   122  Cl    c     1.058870    3.741085   -8.811629    1.485000
   123  Cl    c    -1.021872    6.722247   -6.827557    1.485000
   124  Cl    c    -0.640825    4.234837    8.612101    1.485000
   125  Cl    c    -7.079388    4.730210    4.585399    1.485000
   126  Cl    c    -7.143861   -6.122532   -2.229163    1.485000
   127  Sc    c    -4.967399   -3.745789   -7.439211    3.000000
   128  Cl    c     2.131761   -8.447852   -4.224094    1.485000
   129  Cl    c    -4.249606    6.098038   -6.195719    1.485000
   130  Cl    c    -0.681298    0.995134   -9.610665    1.485000
   131  Cl    c     5.006207    3.355889   -7.581716    1.485000
   132  Sc    c    -9.678066    1.204353   -0.222121    3.000000
   133  Cl    c    -9.237824    2.314341    1.981597    1.485000
   134  Sc    c    -4.016237   -6.896773   -5.633898    3.000000
   135  Sc    c    -3.137279   -2.857853    8.826810    3.000000
   136  Sc    c     0.656631   -8.268651    5.212628    3.000000
   137  Cl    c    -3.596688   -2.158021   -8.814235    1.485000
   138  Cl    c     9.283629   -2.723247   -1.389696    1.485000
   139  Cl    c     3.622860    8.964425   -1.394000    1.485000
   140  Cl    c    -4.595602    4.621709    7.433625    1.485000
   141  Cl    c     4.654138   -8.611386   -1.412758    1.485000
   142  Cl    c    -3.854758    8.965014   -1.388658    1.485000
   143  Cl    c     3.901572   -2.137193   -8.797850    1.485000
   144  Cl    c    -7.470119   -3.608704    5.358761    1.485000
   145  Sc    c    -7.802965   -5.115457    3.380148    3.000000
   146  Cl    c    -7.473261    3.592376   -5.424297    1.485000
   147  Cl    c     7.502187   -3.587899    5.404938    1.485000
   148  Cl    c    -1.822766   -8.091605   -5.435088    1.485000
   149  Cl    c     1.843116    8.099127    5.413748    1.485000
   150  Cl    c     7.500369    3.622951   -5.386592    1.485000
   151  Sc    c     8.162697   -0.998997   -5.600913    3.000000
   152  Cl    s    -1.910954   -0.313405   -1.537235   -2.485000
   153  Cl    s    -1.845794    2.079436    2.005705   -2.485000
   154  Cl    s     1.556771   -2.792012   -1.250815   -2.485000
   155  Cl    s    -1.457719    3.011332   -1.269440   -2.485000
   156  Cl    s     0.843780   -0.287757   -3.466120   -2.485000
   157  Cl    s    -3.586390   -0.109385    1.323813   -2.485000
   158  Cl    s    -1.212946   -3.512161   -0.942906   -2.485000
   159  Cl    s    -1.282157   -0.601421    4.030353   -2.485000
   160  Cl    s     0.878428   -3.696730    1.967399   -2.485000
   161  Cl    s     4.033343   -0.157414    1.242813   -2.485000
   162  Cl    s     3.428118    2.515559   -0.852903   -2.485000
   163  Cl    s     2.330647    1.995736    3.357410   -2.485000
   164  Cl    s    -4.318310    2.618624   -0.930351   -2.485000
   165  Cl    s    -0.688367   -2.575127   -4.400851   -2.485000
   166  Cl    s     5.157723   -0.245341   -2.040580   -2.485000
   167  Cl    s    -2.337222   -3.880131    3.358169   -2.485000
   168  Cl    s     3.431944   -1.081648    4.545201   -2.485000
   169  Cl    s     1.231026    5.673673    1.254234   -2.485000
   170  Cl    s    -4.076316   -1.123013    4.632320   -2.485000
   171  Cl    s    -0.589415   -6.112558    1.295049   -2.485000
   172  Cl    s     5.601948    2.180780    1.956813   -2.485000
   173  Cl    s    -3.423301    3.427794   -4.182878   -2.485000
   174  Cl    s    -1.230418    0.287513   -6.274374   -2.485000
   175  Cl    s    -0.164165   -3.651007    5.279021   -2.485000
   176  Cl    s     2.323376    5.596956   -2.035930   -2.485000
   177  Cl    s    -2.965339    2.238050    5.328206   -2.485000
   178  Cl    s     2.725705   -5.908520   -0.112889   -2.485000
   179  Cl    s    -5.080699    2.041595    3.350066   -2.485000
   180  Cl    s     0.577321   -6.057905   -2.059109   -2.485000
   181  Cl    s    -3.024711    5.782397   -0.165564   -2.485000
   182  Cl    s     2.607631   -2.277847   -5.547464   -2.485000
   183  Cl    s    -0.165824    3.577945   -5.545135   -2.485000
   184  Cl    s     0.606203    4.758280    4.550536   -2.485000
   185  Cl    s    -5.905625   -2.785073   -1.373532   -2.485000
   186  Cl    s     4.066506    3.439919   -4.146067   -2.485000
   187  Cl    s    -1.865447    5.777063   -3.476718   -2.485000
   188  Cl    s     1.576490    0.853661   -6.768717   -2.485000
   189  Cl    s     1.245318    2.066975    6.659983   -2.485000
   190  Cl    s     6.235378    3.082925   -1.351688   -2.485000
   191  Cl    s     6.266490   -3.316917   -0.847793   -2.485000
   192  Cl    s     5.163073   -3.847443    3.352290   -2.485000
   193  Cl    s     4.511036    2.239773    5.263140   -2.485000
   194  Cl    s     7.334311   -0.004931   -0.135253   -2.485000
   195  Cl    s     4.500162    5.836914   -0.131305   -2.485000
   196  Cl    s    -6.518540   -0.106621   -3.462744   -2.485000
   197  Cl    s     6.235536   -0.532587    4.034877   -2.485000
   198  Cl    s     3.409637    5.314112    4.043771   -2.485000
   199  Cl    s    -4.805600   -5.866691   -0.180908   -2.485000
   200  Cl    s    -7.629267   -0.026226   -0.182770   -2.485000
   201  Cl    s    -4.811578   -2.268061   -5.566997   -2.485000
   202  Cl    s     1.558632   -6.403303    4.036461   -2.485000
   203  Cl    s    -1.902444   -1.452212    7.348526   -2.485000
   204  Cl    s    -6.543202   -3.699645    1.923773   -2.485000
   205  Cl    s    -4.060232    5.326528    4.032298   -2.485000
   206  Cl    s    -3.719114   -5.934621   -3.474738   -2.485000
   207  Cl    s     3.786808   -5.905980   -3.465619   -2.485000
   208  Cl    s    -5.183558    5.702083   -2.115560   -2.485000
   209  Cl    s     0.534960   -2.480719   -7.580176   -2.485000
   210  Cl    s    -3.425250   -3.841099    6.674030   -2.485000
   211  Cl    s    -1.244108   -6.965328    4.592377   -2.485000
   212  Cl    s     6.897680   -2.407575   -4.154981   -2.485000
   213  Cl    s     0.608401    8.380601   -0.841255   -2.485000
   214  Cl    s    -2.324643    3.368511   -7.481512   -2.485000
   215  Cl    s    -6.222040    5.663142    1.244234   -2.485000
   216  Cl    s     1.617494   -5.557613   -6.245850   -2.485000
   217  Cl    s    -0.489921    7.851683    3.356812   -2.485000
   218  Cl    s     4.062085   -3.781530    6.652555   -2.485000
   219  Cl    s     2.775715    8.029789    1.961863   -2.485000
   220  Cl    s     5.601447    5.800143   -3.436780   -2.485000
   221  Cl    s     6.272122    0.296107   -6.238240   -2.485000
   222  Cl    s    -3.083092   -5.025753   -6.765779   -2.485000
   223  Cl    s    -5.903061    0.813903   -6.763384   -2.485000
   224  Cl    s     2.778050    4.429605    7.363429   -2.485000
   225  Cl    s     8.427897   -0.047761   -3.441554   -2.485000
   226  Cl    s     2.340980   -1.593775    8.748596   -2.485000
   227  Cl    s     6.893591   -6.016471    1.251083   -2.485000
   228  Cl    s    -3.085314   -8.633741   -1.375194   -2.485000
   229  Cl    s    -6.209597    2.065763    6.627658   -2.485000
   230  Cl    s    -8.731544    3.047495   -1.377730   -2.485000
   231  Cl    s     1.622265   -9.144934   -0.855609   -2.485000
   232  Cl    s     5.593335   -1.418029    7.351431   -2.485000
   233  Cl    s    -8.712860   -3.350279   -0.868996   -2.485000
   234  Cl    s     8.425976   -3.657230    1.958025   -2.485000
   235  Cl    s     3.446566    6.145157   -6.234029   -2.485000
   236  Cl    s    -8.081580   -2.446988   -4.180696   -2.485000
   237  Cl    s    -4.697502    8.028842    1.958622   -2.485000
   238  Cl    s     4.423773   -5.021019   -6.763460   -2.485000
   239  Cl    s    -6.981421   -6.105707   -2.084771   -2.485000
   240  Cl    s    -6.865412    4.773583    4.549781   -2.485000
   241  Cl    s     2.251370   -8.270349   -4.168365   -2.485000
   242  Cl    s     9.071897   -2.763283   -1.352256   -2.485000
   243  Cl    s     0.940394    3.559951   -8.857634   -2.485000
   244  Cl    s    -1.233065    6.673131   -6.783595   -2.485000
   245  Cl    s    -5.915100   -6.402226    4.015541   -2.485000
   246  Cl    s    -8.734588   -0.556822    4.016179   -2.485000
   247  Cl    s    -4.036203    6.133528   -6.234360   -2.485000
   248  Cl    s    -0.569162    1.174598   -9.551482   -2.485000
   249  Cl    s     3.412997    8.920994   -1.352716   -2.485000
   250  Cl    s     5.166669    3.374110   -7.440841   -2.485000
   251  Cl    s     7.337330   -3.604868    5.261875   -2.485000
   252  Cl    s    -0.480834    4.250027    8.751673   -2.485000
   253  Cl    s    -4.708245    4.442882    7.368032   -2.485000
   254  Cl    s     4.437816   -8.642939   -1.378232   -2.485000
   255  Cl    s     1.681727    8.079981    5.267806   -2.485000
   256  Cl    s    -9.352310    2.141841    1.927120   -2.485000
   257  Cl    s     7.337004    3.608366   -5.529238   -2.485000
   258  Cl    s    -3.709858   -2.330977   -8.864052   -2.485000
   259  Cl    s    -4.062925    8.917259   -1.347577   -2.485000
   260  Cl    s     3.784161   -2.314149   -8.844845   -2.485000
   261  Cl    s    -7.631387   -3.627795    5.218553   -2.485000
   262  Cl    s    -1.984403   -8.107336   -5.573770   -2.485000
   263  Cl    s    -7.630207    3.574823   -5.564358   -2.485000
--------------------------------------------------------------------------------


  Final derivatives for region 1 :

--------------------------------------------------------------------------------
   No.  Atomic          x             y             z            Radius
        Label       (eV/Angs)     (eV/Angs)     (eV/Angs)       (eV/Angs)
--------------------------------------------------------------------------------
     1  Sc    c       0.001157      0.001302      0.000350      0.000000
     2  Sc    c       0.000194     -0.001134      0.001394      0.000000
     3  Cl    c      -0.003292      0.000433     -0.001922      0.000000
     4  Cl    c       0.000194      0.000094      0.000133      0.000000
     5  Cl    c       0.000408     -0.000210      0.000137      0.000000
     6  Cl    c       0.000143      0.000235     -0.000009      0.000000
     7  Cl    c      -0.000031     -0.000223      0.000061      0.000000
     8  Cl    c      -0.000106     -0.000014      0.000093      0.000000
     9  Cl    c      -0.000164      0.000861     -0.000299      0.000000
    10  Cl    c       0.000029      0.000002     -0.000014      0.000000
    11  Cl    c       0.000011      0.000038      0.000013      0.000000
    12  Cl    c       0.000050     -0.000003     -0.000030      0.000000
    13  Cl    c       0.000041     -0.000050      0.000125      0.000000
    14  Cl    c       0.000021      0.000029      0.000056      0.000000
    15  Sc    c       0.000052      0.000225      0.000122      0.000000
    16  Sc    c      -0.000155     -0.000181      0.000045      0.000000
    17  Cl    c       0.000053      0.000238      0.000020      0.000000
    18  Cl    c      -0.000201     -0.000379     -0.000306      0.000000
    19  Sc    c       0.000029      0.000003     -0.000017      0.000000
    20  Cl    c      -0.000006      0.000009      0.000002      0.000000
    21  Sc    c       0.000042      0.000012      0.000032      0.000000
    22  Cl    c      -0.000036     -0.000004      0.000017      0.000000
    23  Sc    c       0.000142     -0.000014      0.000136      0.000000
    24  Cl    c       0.000013      0.000004      0.000024      0.000000
    25  Sc    c       0.000038     -0.000033     -0.000387      0.000000
    26  Cl    c      -0.000020      0.000035      0.000006      0.000000
    27  Sc    c       0.000014     -0.000012      0.000062      0.000000
    28  Sc    c      -0.000063     -0.000080      0.000033      0.000000
    29  Cl    c      -0.000039     -0.000041      0.000063      0.000000
    30  Cl    c      -0.000028     -0.000006     -0.000045      0.000000
    31  Cl    c       0.000004     -0.000014     -0.000026      0.000000
    32  Cl    c      -0.000010      0.000033     -0.000087      0.000000
    33  Cl    c      -0.000011      0.000017     -0.000005      0.000000
    34  Cl    c       0.000027      0.000002     -0.000052      0.000000
    35  Cl    c      -0.000016      0.000016      0.000037      0.000000
    36  Cl    c       0.000029     -0.000073     -0.000030      0.000000
    37  Cl    c      -0.000000      0.000003      0.000065      0.000000
    38  Cl    c       0.000040     -0.000061      0.000041      0.000000
    39  Cl    c       0.000017      0.000049     -0.000001      0.000000
    40  Sc    c       0.000017      0.000025     -0.000011      0.000000
    41  Cl    c      -0.000035     -0.000037     -0.000052      0.000000
    42  Cl    c       0.000022     -0.000004     -0.000020      0.000000
    43  Cl    c       0.000003      0.000002      0.000011      0.000000
    44  Cl    c       0.000017      0.000008      0.000004      0.000000
    45  Cl    c      -0.000018      0.000002     -0.000000      0.000000
    46  Cl    c       0.000007      0.000012     -0.000002      0.000000
    47  Sc    c      -0.000010      0.000022      0.000025      0.000000
    48  Cl    c      -0.000011      0.000007      0.000004      0.000000
    49  Cl    c       0.000023     -0.000001     -0.000001      0.000000
    50  Cl    c      -0.000010     -0.000024      0.000031      0.000000
    51  Cl    c       0.000018     -0.000006      0.000013      0.000000
    52  Cl    c       0.000053      0.000026     -0.000033      0.000000
    53  Cl    c      -0.000030     -0.000022     -0.000048      0.000000
    54  Cl    c       0.000009      0.000005     -0.000002      0.000000
    55  Cl    c      -0.000080     -0.000024      0.000006      0.000000
    56  Cl    c       0.000021      0.000000     -0.000018      0.000000
    57  Cl    c       0.000002     -0.000030      0.000018      0.000000
    58  Cl    c       0.000005      0.000006      0.000010      0.000000
    59  Cl    c       0.000011      0.000004      0.000001      0.000000
    60  Cl    c       0.000005      0.000011     -0.000001      0.000000
    61  Sc    c      -0.000013      0.000024     -0.000002      0.000000
    62  Cl    c      -0.000006     -0.000027     -0.000004      0.000000
    63  Sc    c       0.000024      0.000005     -0.000005      0.000000
    64  Cl    c       0.000029      0.000048      0.000013      0.000000
    65  Sc    c      -0.000019      0.000015      0.000005      0.000000
    66  Cl    c       0.000011      0.000003      0.000007      0.000000
    67  Cl    c      -0.000000      0.000010      0.000007      0.000000
    68  Cl    c       0.000016     -0.000031     -0.000001      0.000000
    69  Sc    c       0.000023      0.000065      0.000000      0.000000
    70  Cl    c       0.000004     -0.000005     -0.000003      0.000000
    71  Sc    c      -0.000023      0.000034     -0.000031      0.000000
    72  Cl    c       0.000022     -0.000006     -0.000014      0.000000
    73  Cl    c       0.000006     -0.000011     -0.000023      0.000000
    74  Sc    c       0.000019     -0.000002      0.000022      0.000000
    75  Sc    c       0.000054      0.000034      0.000007      0.000000
    76  Sc    c      -0.000022     -0.000078     -0.000039      0.000000
    77  Cl    c       0.000031      0.000032     -0.000030      0.000000
    78  Cl    c      -0.000010     -0.000058     -0.000018      0.000000
    79  Sc    c      -0.000045     -0.000060     -0.000036      0.000000
    80  Sc    c       0.000018     -0.000036     -0.000020      0.000000
    81  Cl    c       0.000011     -0.000001     -0.000003      0.000000
    82  Cl    c      -0.000012      0.000001     -0.000002      0.000000
    83  Cl    c       0.000001     -0.000006      0.000026      0.000000
    84  Cl    c      -0.000025      0.000000     -0.000014      0.000000
    85  Cl    c       0.000005      0.000002      0.000014      0.000000
    86  Cl    c      -0.000006     -0.000003      0.000002      0.000000
    87  Cl    c      -0.000008     -0.000003     -0.000004      0.000000
    88  Cl    c       0.000005     -0.000003      0.000011      0.000000
    89  Sc    c       0.000057      0.000017      0.000020      0.000000
    90  Sc    c      -0.000016     -0.000050     -0.000037      0.000000
    91  Cl    c       0.000005      0.000002     -0.000020      0.000000
    92  Cl    c       0.000011      0.000005     -0.000003      0.000000
    93  Sc    c      -0.000008     -0.000030     -0.000022      0.000000
    94  Cl    c      -0.000008     -0.000005     -0.000015      0.000000
    95  Cl    c      -0.000001     -0.000007      0.000014      0.000000
    96  Cl    c      -0.000004      0.000006      0.000001      0.000000
    97  Cl    c       0.000003      0.000007     -0.000001      0.000000
    98  Cl    c       0.000000      0.000002      0.000008      0.000000
    99  Sc    c       0.000025      0.000014     -0.000006      0.000000
   100  Sc    c       0.000008      0.000015     -0.000005      0.000000
   101  Cl    c      -0.000023      0.000016     -0.000004      0.000000
   102  Cl    c       0.000012      0.000011      0.000002      0.000000
   103  Cl    c      -0.000002      0.000004      0.000004      0.000000
   104  Cl    c       0.000008      0.000003     -0.000001      0.000000
   105  Cl    c       0.000011     -0.000009      0.000004      0.000000
   106  Cl    c      -0.000001      0.000008     -0.000001      0.000000
   107  Cl    c      -0.000008      0.000001      0.000007      0.000000
   108  Cl    c      -0.000017      0.000002      0.000007      0.000000
   109  Sc    c       0.000022     -0.000008      0.000001      0.000000
   110  Cl    c      -0.000020     -0.000007      0.000007      0.000000
   111  Cl    c       0.000002     -0.000012     -0.000003      0.000000
   112  Sc    c       0.000017     -0.000010      0.000010      0.000000
   113  Sc    c      -0.000004      0.000007      0.000005      0.000000
   114  Cl    c       0.000004      0.000001      0.000007      0.000000
   115  Cl    c       0.000009     -0.000002      0.000003      0.000000
   116  Sc    c       0.000025      0.000021      0.000001      0.000000
   117  Sc    c      -0.000017     -0.000024     -0.000010      0.000000
   118  Cl    c      -0.000006     -0.000016     -0.000005      0.000000
   119  Cl    c      -0.000001     -0.000014     -0.000007      0.000000
   120  Cl    c       0.000009     -0.000008     -0.000004      0.000000
   121  Cl    c       0.000004     -0.000008     -0.000007      0.000000
   122  Cl    c       0.000001      0.000014     -0.000011      0.000000
   123  Cl    c       0.000006     -0.000001      0.000012      0.000000
   124  Cl    c      -0.000002      0.000003     -0.000002      0.000000
   125  Cl    c      -0.000018      0.000017      0.000002      0.000000
   126  Cl    c       0.000011     -0.000004     -0.000004      0.000000
   127  Sc    c       0.000002     -0.000019      0.000009      0.000000
   128  Cl    c      -0.000009      0.000006      0.000010      0.000000
   129  Cl    c      -0.000005      0.000029      0.000000      0.000000
   130  Cl    c      -0.000010      0.000003     -0.000001      0.000000
   131  Cl    c       0.000007      0.000008     -0.000004      0.000000
   132  Sc    c      -0.000052      0.000007     -0.000002      0.000000
   133  Cl    c      -0.000019      0.000010      0.000006      0.000000
   134  Sc    c       0.000011      0.000009      0.000022      0.000000
   135  Sc    c       0.000007      0.000003      0.000007      0.000000
   136  Sc    c      -0.000010     -0.000033      0.000007      0.000000
   137  Cl    c      -0.000003     -0.000009     -0.000003      0.000000
   138  Cl    c       0.000009     -0.000001     -0.000001      0.000000
   139  Cl    c      -0.000003      0.000005     -0.000000      0.000000
   140  Cl    c       0.000022      0.000019     -0.000000      0.000000
[...]
    182 y          1.946631      1.921858    -0.024773    Cartesian   -1.27
    182 z         -1.724709     -1.715826     0.008883    Cartesian   -0.52
    183 x          5.767833      5.746831    -0.021002    Cartesian   -0.36
    183 y          7.798975      7.777650    -0.021324    Cartesian   -0.27
    183 z         -1.723223     -1.713497     0.009725    Cartesian   -0.56
    184 x          6.527843      6.518858    -0.008985    Cartesian   -0.14
    184 y          8.981523      8.957985    -0.023538    Cartesian   -0.26
    184 z          8.401680      8.382174    -0.019506    Cartesian   -0.23
    185 x          0.000980      0.007031     0.006050    Cartesian  617.17
    185 y          1.401091      1.414632     0.013541    Cartesian    0.97
    185 z          2.449364      2.458106     0.008742    Cartesian    0.36
    186 x          9.994290      9.979161    -0.015128    Cartesian   -0.15
    186 y          7.640408      7.639624    -0.000784    Cartesian   -0.01
    186 z         -0.314828     -0.314429     0.000399    Cartesian   -0.13
    187 x          4.034401      4.047209     0.012808    Cartesian    0.32
    187 y          9.983563      9.976768    -0.006795    Cartesian   -0.07
    187 z          0.375850      0.354920    -0.020929    Cartesian   -5.57
    188 x          7.497257      7.489145    -0.008112    Cartesian   -0.11
    188 y          5.030591      5.053366     0.022775    Cartesian    0.45
    188 z         -2.937792     -2.937079     0.000713    Cartesian   -0.02
    189 x          7.161136      7.157973    -0.003163    Cartesian   -0.04
    189 y          6.269098      6.266680    -0.002418    Cartesian   -0.04
    189 z         10.492471     10.491621    -0.000849    Cartesian   -0.01
    190 x         12.160381     12.148034    -0.012347    Cartesian   -0.10
    190 y          7.288781      7.282630    -0.006151    Cartesian   -0.08
    190 z          2.482350      2.479950    -0.002400    Cartesian   -0.10
    191 x         12.183467     12.179146    -0.004321    Cartesian   -0.04
    191 y          0.888663      0.882788    -0.005875    Cartesian   -0.66
    191 z          2.995802      2.983845    -0.011957    Cartesian   -0.40
    192 x         11.083273     11.075728    -0.007545    Cartesian   -0.07
    192 y          0.360788      0.352262    -0.008526    Cartesian   -2.36
    192 z          7.185646      7.183928    -0.001718    Cartesian   -0.02
    193 x         10.427395     10.423691    -0.003704    Cartesian   -0.04
    193 y          6.445339      6.439478    -0.005861    Cartesian   -0.09
    193 z          9.099825      9.094778    -0.005047    Cartesian   -0.06
    194 x         13.256988     13.246966    -0.010021    Cartesian   -0.08
    194 y          4.204821      4.194774    -0.010048    Cartesian   -0.24
    194 z          3.695433      3.696385     0.000952    Cartesian    0.03
    195 x         10.430956     10.412817    -0.018139    Cartesian   -0.17
    195 y         10.057165     10.036619    -0.020547    Cartesian   -0.20
    195 z          3.696919      3.700333     0.003414    Cartesian    0.09
    196 x         -0.632284     -0.605884     0.026400    Cartesian   -4.18
    196 y          4.113546      4.093084    -0.020462    Cartesian   -0.50
    196 z          0.358614      0.368894     0.010280    Cartesian    2.87
    197 x         12.156820     12.148192    -0.008628    Cartesian   -0.07
    197 y          3.676955      3.667118    -0.009837    Cartesian   -0.27
    197 z          7.885256      7.866514    -0.018742    Cartesian   -0.24
    198 x          9.330788      9.322292    -0.008496    Cartesian   -0.09
    198 y          9.529298      9.513817    -0.015482    Cartesian   -0.16
    198 z          7.886742      7.875409    -0.011334    Cartesian   -0.14
    199 x          1.097587      1.107055     0.009468    Cartesian    0.86
    199 y         -1.682869     -1.666986     0.015883    Cartesian   -0.94
    199 z          3.662447      3.650730    -0.011717    Cartesian   -0.32
    200 x         -1.728444     -1.716611     0.011833    Cartesian   -0.68
    200 y          4.169474      4.173479     0.004005    Cartesian    0.10
    200 z          3.663934      3.648867    -0.015066    Cartesian   -0.41
    201 x          1.101148      1.101078    -0.000071    Cartesian   -0.01
    201 y          1.928957      1.931644     0.002687    Cartesian    0.14
    201 z         -1.740459     -1.735359     0.005100    Cartesian   -0.29
    202 x          7.490135      7.471288    -0.018847    Cartesian   -0.25
    202 y         -2.193063     -2.203598    -0.010536    Cartesian    0.48
    202 z          7.868020      7.868098     0.000078    Cartesian    0.00
    203 x          4.027279      4.010212    -0.017067    Cartesian   -0.42
    203 y          2.759910      2.747493    -0.012417    Cartesian   -0.45
    203 z         11.181662     11.180164    -0.001498    Cartesian   -0.01
    204 x         -0.635845     -0.630546     0.005299    Cartesian   -0.83
    204 y          0.501719      0.500060    -0.001660    Cartesian   -0.33
    204 z          5.761520      5.755411    -0.006109    Cartesian   -0.11
    205 x          1.838073      1.852424     0.014351    Cartesian    0.78
    205 y          9.511625      9.526233     0.014608    Cartesian    0.15
    205 z          7.870993      7.863936    -0.007057    Cartesian   -0.09
    206 x          2.193748      2.193541    -0.000207    Cartesian   -0.01
    206 y         -1.738798     -1.734916     0.003882    Cartesian   -0.22
    206 z          0.357128      0.356899    -0.000228    Cartesian   -0.06
    207 x          9.686464      9.699464     0.013000    Cartesian    0.13
    207 y         -1.721124     -1.706275     0.014850    Cartesian   -0.86
    207 z          0.372877      0.366019    -0.006859    Cartesian   -1.84
    208 x          0.768087      0.729097    -0.038989    Cartesian   -5.08
    208 y          9.807285      9.901788     0.094503    Cartesian    0.96
    208 z          1.768476      1.716077    -0.052399    Cartesian   -2.96
    209 x          6.423710      6.447616     0.023905    Cartesian    0.37
    209 y          1.714424      1.718986     0.004562    Cartesian    0.27
    209 z         -3.637402     -3.748538    -0.111135    Cartesian    3.06
    210 x          2.494451      2.487405    -0.007046    Cartesian   -0.28
    210 y          0.399081      0.358606    -0.040476    Cartesian  -10.14
    210 z         10.475235     10.505668     0.030433    Cartesian    0.29
    211 x          4.687190      4.668548    -0.018642    Cartesian   -0.40
    211 y         -2.740838     -2.765623    -0.024786    Cartesian    0.90
    211 z          8.382959      8.424015     0.041057    Cartesian    0.49
    212 x         12.820321     12.810336    -0.009985    Cartesian   -0.08
    212 y          1.788064      1.792130     0.004066    Cartesian    0.23
    212 z         -0.316314     -0.323343    -0.007029    Cartesian    2.22
    213 x          6.531404      6.521056    -0.010348    Cartesian   -0.16
    213 y         12.593350     12.580306    -0.013044    Cartesian   -0.10
    213 z          2.998774      2.990382    -0.008392    Cartesian   -0.28
    214 x          3.597679      3.588012    -0.009667    Cartesian   -0.27
    214 y          7.566768      7.568216     0.001449    Cartesian    0.02
    214 z         -3.635916     -3.649874    -0.013958    Cartesian    0.38
    215 x         -0.328019     -0.309385     0.018634    Cartesian   -5.68
    215 y          9.863252      9.862847    -0.000404    Cartesian   -0.00
    215 z          5.073815      5.075872     0.002057    Cartesian    0.04
    216 x          7.520344      7.530149     0.009806    Cartesian    0.13
    216 y         -1.369528     -1.357908     0.011620    Cartesian   -0.85
    216 z         -2.424340     -2.414212     0.010128    Cartesian   -0.42
    217 x          5.431210      5.422735    -0.008475    Cartesian   -0.16
    217 y         12.065476     12.051388    -0.014087    Cartesian   -0.12
    217 z          7.188618      7.188450    -0.000168    Cartesian   -0.00
    218 x          9.987167      9.974741    -0.012427    Cartesian   -0.12
    218 y          0.416755      0.418175     0.001420    Cartesian    0.34
    218 z         10.490984     10.484193    -0.006791    Cartesian   -0.06
    219 x          8.697525      8.688370    -0.009154    Cartesian   -0.11
    219 y         12.241754     12.229494    -0.012260    Cartesian   -0.10
    219 z          5.795992      5.793501    -0.002490    Cartesian   -0.04
    220 x         11.527117     11.514103    -0.013014    Cartesian   -0.11
    220 y         10.001237      9.999848    -0.001389    Cartesian   -0.01
    220 z          0.391599      0.394858     0.003259    Cartesian    0.83
    221 x         12.187028     12.184777    -0.002251    Cartesian   -0.02
    221 y          4.500489      4.495813    -0.004677    Cartesian   -0.10
    221 z         -2.407104     -2.406602     0.000502    Cartesian   -0.02
    222 x          2.830573      2.829563    -0.001010    Cartesian   -0.04
    222 y         -0.839427     -0.826048     0.013379    Cartesian   -1.59
    222 z         -2.955028     -2.934141     0.020887    Cartesian   -0.71
    223 x          0.004541      0.009595     0.005053    Cartesian  111.26
    223 y          5.012917      5.013608     0.000691    Cartesian    0.01
    223 z         -2.953542     -2.931746     0.021796    Cartesian   -0.74
    224 x          8.693963      8.690706    -0.003257    Cartesian   -0.04
    224 y          8.629927      8.629310    -0.000617    Cartesian   -0.01
    224 z         11.198898     11.195067    -0.003831    Cartesian   -0.03
    225 x         14.353148     14.340552    -0.012596    Cartesian   -0.09
    225 y          4.148893      4.151944     0.003051    Cartesian    0.07
    225 z          0.390113      0.390084    -0.000029    Cartesian   -0.01
    226 x          8.253680      8.253636    -0.000044    Cartesian   -0.00
    226 y          2.601305      2.605930     0.004624    Cartesian    0.18
    226 z         12.590038     12.580234    -0.009804    Cartesian   -0.08
    227 x         12.816760     12.806247    -0.010513    Cartesian   -0.08
    227 y         -1.823762     -1.816766     0.006996    Cartesian   -0.38
    227 z          5.086592      5.082721    -0.003871    Cartesian   -0.08
    228 x          2.827012      2.827341     0.000330    Cartesian    0.01
    228 y         -4.451253     -4.434036     0.017217    Cartesian   -0.39
    228 z          2.447878      2.456443     0.008565    Cartesian    0.35
    229 x         -0.331580     -0.296942     0.034638    Cartesian  -10.45
    229 y          6.251425      6.265468     0.014043    Cartesian    0.22
    229 z         10.476721     10.459296    -0.017425    Cartesian   -0.17
    230 x         -2.825051     -2.818889     0.006162    Cartesian   -0.22
    230 y          7.253434      7.247200    -0.006235    Cartesian   -0.09
    230 z          2.450851      2.453908     0.003058    Cartesian    0.12
    231 x          7.516782      7.534920     0.018138    Cartesian    0.24
    231 y         -4.981355     -4.945228     0.036126    Cartesian   -0.73
    231 z          2.978566      2.976029    -0.002537    Cartesian   -0.09
    232 x         11.519995     11.505990    -0.014005    Cartesian   -0.12
    232 y          2.777583      2.781676     0.004093    Cartesian    0.15
    232 z         11.197412     11.183069    -0.014342    Cartesian   -0.13
    233 x         -2.801965     -2.800205     0.001760    Cartesian   -0.06
    233 y          0.853316      0.849426    -0.003890    Cartesian   -0.46
    233 z          2.964303      2.962642    -0.001660    Cartesian   -0.06
    234 x         14.349587     14.338631    -0.010956    Cartesian   -0.08
    234 y          0.537066      0.542475     0.005409    Cartesian    1.01
    234 z          5.793019      5.789663    -0.003357    Cartesian   -0.06
    235 x          9.360997      9.359222    -0.001775    Cartesian   -0.02
    235 y         10.352833     10.344862    -0.007971    Cartesian   -0.08
    235 z         -2.405618     -2.402391     0.003227    Cartesian   -0.13
    236 x         -2.165111     -2.168925    -0.003814    Cartesian    0.18
    236 y          1.752717      1.752718     0.000000    Cartesian    0.00
    236 z         -0.347813     -0.349058    -0.001245    Cartesian    0.36
    237 x          1.204809      1.215153     0.010345    Cartesian    0.86
    237 y         12.224080     12.228547     0.004467    Cartesian    0.04
    237 z          5.780242      5.790260     0.010018    Cartesian    0.17
    238 x         10.323289     10.336429     0.013140    Cartesian    0.13
    238 y         -0.821753     -0.821314     0.000439    Cartesian   -0.05
    238 z         -2.939278     -2.931822     0.007456    Cartesian   -0.25
    239 x         -1.072567     -1.068766     0.003801    Cartesian   -0.35
    239 y         -1.915076     -1.906002     0.009074    Cartesian   -0.47
    239 z          1.749754      1.746867    -0.002887    Cartesian   -0.17
    240 x         -0.964873     -0.952757     0.012116    Cartesian   -1.26
    240 y          8.963850      8.973288     0.009438    Cartesian    0.11
    240 z          8.385931      8.381419    -0.004512    Cartesian   -0.05
    241 x          8.153636      8.164025     0.010389    Cartesian    0.13
    241 y         -4.081953     -4.070643     0.011310    Cartesian   -0.28
    241 z         -0.333550     -0.336728    -0.003178    Cartesian    0.95
    242 x         14.986412     14.984553    -0.001859    Cartesian   -0.01
    242 y          1.436438      1.436423    -0.000015    Cartesian   -0.00
    242 z          2.480864      2.479382    -0.001482    Cartesian   -0.06
    243 x          6.863993      6.853050    -0.010944    Cartesian   -0.16
    243 y          7.743046      7.759656     0.016610    Cartesian    0.21
    243 z         -5.028543     -5.025997     0.002546    Cartesian   -0.05
    244 x          4.671226      4.679590     0.008364    Cartesian    0.18
    244 y         10.882934     10.872836    -0.010099    Cartesian   -0.09
    244 z         -2.936306     -2.951957    -0.015652    Cartesian    0.53
    245 x         -0.002581     -0.002444     0.000137    Cartesian   -5.30
    245 y         -2.210736     -2.202521     0.008215    Cartesian   -0.37
    245 z          7.852271      7.847179    -0.005091    Cartesian   -0.06
    246 x         -2.828612     -2.821933     0.006680    Cartesian   -0.24
    246 y          3.641608      3.642883     0.001276    Cartesian    0.04
    246 z          7.853757      7.847817    -0.005940    Cartesian   -0.08
    247 x          1.868281      1.876453     0.008172    Cartesian    0.44
    247 y         10.335159     10.333233    -0.001927    Cartesian   -0.02
    247 z         -2.421368     -2.402722     0.018646    Cartesian   -0.77
    248 x          5.331166      5.343493     0.012327    Cartesian    0.23
    248 y          5.382217      5.374303    -0.007915    Cartesian   -0.15
    248 z         -5.734970     -5.719844     0.015125    Cartesian   -0.26
    249 x          9.334350      9.325652    -0.008697    Cartesian   -0.09
    249 y         13.141125     13.120699    -0.020426    Cartesian   -0.16
    249 z          2.483836      2.478922    -0.004914    Cartesian   -0.20
    250 x         11.090395     11.079325    -0.011070    Cartesian   -0.10
    250 y          7.584441      7.573815    -0.010627    Cartesian   -0.14
    250 z         -3.620166     -3.609203     0.010963    Cartesian   -0.30
    251 x         13.253427     13.249985    -0.003442    Cartesian   -0.03
    251 y          0.592995      0.594837     0.001842    Cartesian    0.31
    251 z          9.098339      9.093513    -0.004826    Cartesian   -0.05
    252 x          5.427649      5.431822     0.004173    Cartesian    0.08
    252 y          8.453649      8.449732    -0.003917    Cartesian   -0.05
    252 z         12.591524     12.583311    -0.008214    Cartesian   -0.07
    253 x          1.201247      1.204410     0.003163    Cartesian    0.26
    253 y          8.612254      8.642588     0.030334    Cartesian    0.35
    253 z         11.183148     11.199670     0.016522    Cartesian    0.15
    254 x         10.319728     10.350472     0.030744    Cartesian    0.30
    254 y         -4.433580     -4.443234    -0.009655    Cartesian    0.22
    254 z          2.463628      2.453406    -0.010222    Cartesian   -0.41
    255 x          7.601364      7.594383    -0.006981    Cartesian   -0.09
    255 y         12.297682     12.279686    -0.017996    Cartesian   -0.15
    255 z          9.101311      9.099444    -0.001868    Cartesian   -0.02
    256 x         -3.461876     -3.439655     0.022221    Cartesian   -0.64
    256 y          6.354063      6.341546    -0.012517    Cartesian   -0.20
    256 z          5.763006      5.758758    -0.004248    Cartesian   -0.07
    257 x         13.260549     13.249660    -0.010889    Cartesian   -0.08
    257 y          7.816648      7.808072    -0.008577    Cartesian   -0.11
    257 z         -1.707473     -1.697600     0.009873    Cartesian   -0.58
    258 x          2.197309      2.202798     0.005489    Cartesian    0.25
    258 y          1.873029      1.868728    -0.004300    Cartesian   -0.23
    258 z         -5.045778     -5.032414     0.013364    Cartesian   -0.26
    259 x          1.841634      1.849731     0.008097    Cartesian    0.44
    259 y         13.123452     13.116964    -0.006487    Cartesian   -0.05
    259 z          2.468086      2.484061     0.015974    Cartesian    0.65
    260 x          9.690025      9.696817     0.006792    Cartesian    0.07
    260 y          1.890702      1.885556    -0.005146    Cartesian   -0.27
    260 z         -5.030029     -5.013207     0.016821    Cartesian   -0.33
    261 x         -1.732005     -1.718732     0.013274    Cartesian   -0.77
    261 y          0.557648      0.571910     0.014263    Cartesian    2.56
    261 z          9.066840      9.050191    -0.016648    Cartesian   -0.18
    262 x          3.927180      3.928253     0.001073    Cartesian    0.03
    262 y         -3.923386     -3.907631     0.015756    Cartesian   -0.40
    262 z         -1.741945     -1.742132    -0.000187    Cartesian    0.01
    263 x         -1.724883     -1.717552     0.007332    Cartesian   -0.43
    263 y          7.781301      7.774528    -0.006773    Cartesian   -0.09
    263 z         -1.738973     -1.732720     0.006252    Cartesian   -0.36
--------------------------------------------------------------------------------


  Time to end of optimisation  =       60.7917 seconds


  Peak dynamic memory used =      13.70 MB 


  Timing analysis for GULP :

--------------------------------------------------------------------------------
  Task / Subroutine                                          Time (Seconds)
--------------------------------------------------------------------------------
  Calculation of reciprocal space energy and derivatives          0.0175
  Calculation of real space energy and derivatives                0.5185
  Calculation for region 1 energy and derivatives (2-b)          12.0677
  Calculation for region 2a energy                               46.8393
  Calculation for region 2b energy                                0.0253
  Calculation and manipulation of Hessian matrix                  0.0028
  Calculation of matrix inversion                                 1.1440
--------------------------------------------------------------------------------
  Total CPU time                                                 60.7918
--------------------------------------------------------------------------------


  Dump file written as ScCl3.grs



  **** GULP has completed with   2 warnings - beware! ****

  Job Finished at 18:44.46  7th February   2022                               

