********************************************************************************
*                       GENERAL UTILITY LATTICE PROGRAM                        *
*                                 Julian Gale                                  *
*                       Curtin Institute for Computation                       *
*                    School of Molecular and Life Sciences                     *
*                    Curtin University, Western Australia                      *
********************************************************************************
* Version = 5.2.0 * Last modified =   1st June 2020                            *
********************************************************************************
*  optimise     - perform optimisation run                                     *
*  conp         - constant pressure calculation                                *
*  property     - calculate properties for final geometry                      *
*  defect       - perform defect calculation after bulk run                    *
*  compare      - compare initial and final structures                         *
********************************************************************************

  Job Started  at 18:43.41  7th February   2022                               

  Number of CPUs =     1


  Total number of configurations input =      1

********************************************************************************
*  Input for Configuration =   1                                               *
********************************************************************************

  Formula = Sc2Cl6                                                      

  Number of irreducible atoms/shells =      14


  Total number atoms/shells =      14

  Dimensionality = 3               :  Bulk   



  Cartesian lattice vectors (Angstroms) :

        7.453000    0.000000    0.000000
        4.624520    5.844744    0.000000
        4.624520    2.237970    5.399307

  Cell parameters (Angstroms/Degrees):

  a =       7.4530    alpha =  51.6480
  b =       7.4530    beta  =  51.6480
  c =       7.4530    gamma =  51.6480

  Initial cell volume =         235.198534 Angs**3

  Temperature of configuration =   0.00     K 

  Pressure of configuration =         0.000 GPa 

  Fractional coordinates of asymmetric unit :

--------------------------------------------------------------------------------
   No.  Atomic       x           y          z         Charge      Occupancy
        Label      (Frac)      (Frac)     (Frac)        (e)         (Frac)  
--------------------------------------------------------------------------------
      1 Sc    c    0.333900    0.333900    0.333900     3.00000    1.000000    
      2 Sc    c    0.666100 *  0.666100 *  0.666100 *   3.00000    1.000000    
      3 Cl    c    0.073700 *  0.443900 *  0.705300 *   1.48500    1.000000    
      4 Cl    c    0.294700 *  0.926300 *  0.556100 *   1.48500    1.000000    
      5 Cl    c    0.443900 *  0.705300 *  0.073700 *   1.48500    1.000000    
      6 Cl    c    0.556100 *  0.294700 *  0.926300 *   1.48500    1.000000    
      7 Cl    c    0.705300 *  0.073700 *  0.443900 *   1.48500    1.000000    
      8 Cl    c    0.926300 *  0.556100 *  0.294700 *   1.48500    1.000000    
      9 Cl    s    0.073700 *  0.443900 *  0.705300 *  -2.48500    1.000000    
     10 Cl    s    0.294700 *  0.926300 *  0.556100 *  -2.48500    1.000000    
     11 Cl    s    0.443900 *  0.705300 *  0.073700 *  -2.48500    1.000000    
     12 Cl    s    0.556100 *  0.294700 *  0.926300 *  -2.48500    1.000000    
     13 Cl    s    0.705300 *  0.073700 *  0.443900 *  -2.48500    1.000000    
     14 Cl    s    0.926300 *  0.556100 *  0.294700 *  -2.48500    1.000000    
--------------------------------------------------------------------------------



********************************************************************************
*  General input information                                                   *
********************************************************************************

  Species output for all configurations : 

--------------------------------------------------------------------------------
  Species    Type    Atomic    Atomic    Charge       Radii (Angs)     Library
                     Number     Mass       (e)     Cova   Ionic  VDW   Symbol
--------------------------------------------------------------------------------
    Sc       Core       21      44.96   3.000000   1.440  0.000  2.150          
    Cl       Core       17      35.45   1.485000   0.990  0.000  1.650          
    Cl       Shell      17       0.00  -2.485000   0.990  0.000  1.650          
--------------------------------------------------------------------------------


  Lattice summation method               =    Ewald          (3-D)
                                         =    Parry          (2-D)
                                         =    Saunders et al (1-D)
  Accuracy factor for lattice sums       =   12.000


  Analytic derivatives to be used

  Time limit = Infinity

  Maximum range for interatomic potentials =    100000.000000 Angstroms

  General interatomic potentials :

--------------------------------------------------------------------------------
Atom  Types   Potential      Parameter       Value         Units   Cutoffs(Ang)
  1     2                                                            Min /  Max 
--------------------------------------------------------------------------------
Cl   c Cl   s Spring (c-s)  Spring k 2       36.070000    eV*Ang^-2 0.000  0.800
                            Spring k 4       0.0000000    eV*Ang^-4 
--------------------------------------------------------------------------------
Sc   c Cl   s Buckingham    Buckingham A     2456.2200    eV        0.000 12.000
                            Buckingham rho  0.31470000    Ang       
                            Buckingham C     0.0000000    eV*Ang^6  
--------------------------------------------------------------------------------
Cl   s Cl   s Buckingham    Buckingham A     1227.2000    eV        0.000 12.000
                            Buckingham rho  0.32100000    Ang       
                            Buckingham C     14.530000    eV*Ang^6  
--------------------------------------------------------------------------------

********************************************************************************
*  Output for configuration   1                                                *
********************************************************************************


  Components of energy : 

--------------------------------------------------------------------------------
  Interatomic potentials     =          10.39244711 eV    
  Monopole - monopole (real) =         -30.86300284 eV    
  Monopole - monopole (recip)=         -65.52201623 eV    
  Monopole - monopole (total)=         -96.38501907 eV    
--------------------------------------------------------------------------------
  Total lattice energy       =         -85.99257196 eV    
--------------------------------------------------------------------------------
  Total lattice energy       =           -8296.9687 kJ/(mole unit cells)
--------------------------------------------------------------------------------


  Number of variables =       45

  Maximum number of calculations  =          1000
  Maximum Hessian update interval =            10
  Maximum step size               =   1.000000000
  Maximum parameter tolerance     =   0.000010000
  Maximum function  tolerance     =   0.000010000
  Maximum gradient  tolerance     =   0.001000000
  Maximum gradient  component     =   0.010000000

  Symmetry not applied to optimisation

  Cell parameters to be optimised using strains

  Newton-Raphson optimiser to be used

  BFGS hessian update to be used

  Lower half triangular hessian to be used

  Start of bulk optimisation :

  Cycle:      0 Energy:       -85.992572  Gnorm:      8.922860  CPU:    0.018
  ** Hessian calculated **
  Cycle:      1 Energy:       -91.630693  Gnorm:      3.248521  CPU:    0.041
  ** Hessian calculated **
  Cycle:      2 Energy:       -93.407926  Gnorm:      0.241259  CPU:    0.068
  Cycle:      3 Energy:       -93.727483  Gnorm:      0.379189  CPU:    0.089
  Cycle:      4 Energy:       -93.872131  Gnorm:      0.419846  CPU:    0.106
  Cycle:      5 Energy:       -93.916106  Gnorm:      0.216759  CPU:    0.127
  Cycle:      6 Energy:       -93.955402  Gnorm:      0.236635  CPU:    0.149
  Cycle:      7 Energy:       -94.003608  Gnorm:      0.337075  CPU:    0.171
  Cycle:      8 Energy:       -94.063864  Gnorm:      0.300404  CPU:    0.193
  Cycle:      9 Energy:       -94.105073  Gnorm:      0.327302  CPU:    0.211
  Cycle:     10 Energy:       -94.152801  Gnorm:      0.172167  CPU:    0.233
  Cycle:     11 Energy:       -94.162078  Gnorm:      0.129678  CPU:    0.251
  ** Hessian calculated **
  Cycle:     12 Energy:       -94.184232  Gnorm:      0.042568  CPU:    0.281
  Cycle:     13 Energy:       -94.185870  Gnorm:      0.019064  CPU:    0.300
  Cycle:     14 Energy:       -94.186129  Gnorm:      0.004834  CPU:    0.318
  Cycle:     15 Energy:       -94.186171  Gnorm:      0.003759  CPU:    0.339


  **** Optimisation achieved ****


  Final energy =     -94.18617309 eV
  Final Gnorm  =       0.00026742

  Components of energy : 

--------------------------------------------------------------------------------
  Interatomic potentials     =          21.32396821 eV    
  Monopole - monopole (real) =          81.06426209 eV    
  Monopole - monopole (recip)=        -196.57440339 eV    
  Monopole - monopole (total)=        -115.51014130 eV    
--------------------------------------------------------------------------------
  Total lattice energy       =         -94.18617309 eV    
--------------------------------------------------------------------------------
  Total lattice energy       =           -9087.5259 kJ/(mole unit cells)
--------------------------------------------------------------------------------

  Final fractional coordinates of atoms :

--------------------------------------------------------------------------------
   No.  Atomic        x           y          z          Radius
        Label       (Frac)      (Frac)     (Frac)       (Angs) 
--------------------------------------------------------------------------------
     1  Sc    c     0.333900    0.333900    0.333900    0.000000
     2  Sc    c     0.667797    0.667813    0.667799    0.000000
     3  Cl    c     0.075682    0.445383    0.703391    0.000000
     4  Cl    c     0.297892    0.926501    0.556250    0.000000
     5  Cl    c     0.445899    0.703300    0.075286    0.000000
     6  Cl    c     0.555797    0.298410    0.926421    0.000000
     7  Cl    c     0.703804    0.075207    0.445450    0.000000
     8  Cl    c     0.926009    0.556319    0.298315    0.000000
     9  Cl    s     0.065947    0.452571    0.677260    0.000000
    10  Cl    s     0.324076    0.936176    0.549072    0.000000
    11  Cl    s     0.453018    0.677183    0.065599    0.000000
    12  Cl    s     0.548677    0.324526    0.936109    0.000000
    13  Cl    s     0.677621    0.065531    0.452629    0.000000
    14  Cl    s     0.935746    0.549133    0.324445    0.000000
--------------------------------------------------------------------------------

  Final Cartesian lattice vectors (Angstroms) :

        7.492716    0.017674    0.015750
        4.666685    5.870017    0.017236
        4.663123    2.258191    5.420142


  Final cell parameters and derivatives :

--------------------------------------------------------------------------------
       a            7.492753 Angstrom     dE/de1(xx)     0.001502 eV/strain
       b            7.499023 Angstrom     dE/de2(yy)     0.001130 eV/strain
       c            7.498139 Angstrom     dE/de3(zz)     0.001402 eV/strain
       alpha       51.360329 Degrees      dE/de4(yz)     0.000184 eV/strain
       beta        51.381576 Degrees      dE/de5(xz)     0.000594 eV/strain
       gamma       51.379896 Degrees      dE/de6(xy)     0.000958 eV/strain
--------------------------------------------------------------------------------

  Primitive cell volume =           237.388320 Angs**3

  Density of cell =      2.116870 g/cm**3

  Non-primitive cell volume =           237.388320 Angs**3


  Final internal derivatives :

--------------------------------------------------------------------------------
   No.  Atomic          a             b             c           Radius
        Label          (eV)          (eV)          (eV)        (eV/Angs)
--------------------------------------------------------------------------------
      1 Sc    c       0.000000      0.000000      0.000000      0.000000
      2 Sc    c       0.001681      0.001454      0.000124      0.000000
      3 Cl    c      -0.002719     -0.000640     -0.000937      0.000000
      4 Cl    c       0.000986      0.001285      0.000118      0.000000
      5 Cl    c       0.001446      0.000724      0.001502      0.000000
      6 Cl    c      -0.000978      0.000527     -0.000482      0.000000
      7 Cl    c      -0.001726     -0.001514     -0.000663      0.000000
      8 Cl    c       0.000842     -0.000977      0.000232      0.000000
      9 Cl    s       0.003561      0.001253      0.002922      0.000000
     10 Cl    s      -0.002865     -0.003016     -0.001029      0.000000
     11 Cl    s       0.001191      0.003381      0.002375      0.000000
     12 Cl    s      -0.001348     -0.004134     -0.001709      0.000000
     13 Cl    s       0.002463      0.001978      0.000726      0.000000
     14 Cl    s      -0.002693     -0.000158     -0.002951      0.000000
--------------------------------------------------------------------------------
  Maximum abs         0.003561      0.004134      0.002951      0.000000
--------------------------------------------------------------------------------

  Comparison of initial and final structures : 

--------------------------------------------------------------------------------
  Parameter   Initial value   Final value   Difference    Units      Percent
--------------------------------------------------------------------------------
    Volume       235.198534    237.388320     2.189785    Angs**3      0.93
    a              7.453000      7.492753     0.039753    Angstroms    0.53
    b              7.453000      7.499023     0.046023    Angstroms    0.62
    c              7.453000      7.498139     0.045139    Angstroms    0.61
    alpha         51.648000     51.360329    -0.287671    Degrees     -0.56
    beta          51.648000     51.381576    -0.266424    Degrees     -0.52
    gamma         51.648000     51.379896    -0.268104    Degrees     -0.52
      1 x          0.333900      0.333900     0.000000    Fractional   0.00
      1 y          0.333900      0.333900     0.000000    Fractional   0.00
      1 z          0.333900      0.333900     0.000000    Fractional   0.00
      2 x          0.666100      0.667797     0.001697    Fractional   0.25
      2 y          0.666100      0.667813     0.001713    Fractional   0.26
      2 z          0.666100      0.667799     0.001699    Fractional   0.25
      3 x          0.073700      0.075682     0.001982    Fractional   2.69
      3 y          0.443900      0.445383     0.001483    Fractional   0.33
      3 z          0.705300      0.703391     0.001909    Fractional   0.27
      4 x          0.294700      0.297892     0.003192    Fractional   1.08
      4 y          0.926300      0.926501     0.000201    Fractional   0.02
      4 z          0.556100      0.556250     0.000150    Fractional   0.03
      5 x          0.443900      0.445899     0.001999    Fractional   0.45
      5 y          0.705300      0.703300     0.002000    Fractional   0.28
      5 z          0.073700      0.075286     0.001586    Fractional   2.15
      6 x          0.556100      0.555797     0.000303    Fractional   0.05
      6 y          0.294700      0.298410     0.003710    Fractional   1.26
      6 z          0.926300      0.926421     0.000121    Fractional   0.01
      7 x          0.705300      0.703804     0.001496    Fractional   0.21
      7 y          0.073700      0.075207     0.001507    Fractional   2.04
      7 z          0.443900      0.445450     0.001550    Fractional   0.35
      8 x          0.926300      0.926009     0.000291    Fractional   0.03
      8 y          0.556100      0.556319     0.000219    Fractional   0.04
      8 z          0.294700      0.298315     0.003615    Fractional   1.23
      9 x          0.073700      0.065947     0.007753    Fractional  10.52
      9 y          0.443900      0.452571     0.008671    Fractional   1.95
      9 z          0.705300      0.677260     0.028040    Fractional   3.98
     10 x          0.294700      0.324076     0.029376    Fractional   9.97
     10 y          0.926300      0.936176     0.009876    Fractional   1.07
     10 z          0.556100      0.549072     0.007028    Fractional   1.26
     11 x          0.443900      0.453018     0.009118    Fractional   2.05
     11 y          0.705300      0.677183     0.028117    Fractional   3.99
     11 z          0.073700      0.065599     0.008101    Fractional  10.99
     12 x          0.556100      0.548677     0.007423    Fractional   1.33
     12 y          0.294700      0.324526     0.029826    Fractional  10.12
     12 z          0.926300      0.936109     0.009809    Fractional   1.06
     13 x          0.705300      0.677621     0.027679    Fractional   3.92
     13 y          0.073700      0.065531     0.008169    Fractional  11.08
     13 z          0.443900      0.452629     0.008729    Fractional   1.97
     14 x          0.926300      0.935746     0.009446    Fractional   1.02
     14 y          0.556100      0.549133     0.006967    Fractional   1.25
     14 z          0.294700      0.324445     0.029745    Fractional  10.09
--------------------------------------------------------------------------------


  Born effective charge tensors : 

-------------------------------------------------------------------------------
  Atom             x           y             z
-------------------------------------------------------------------------------
    1 Sc    x       2.2285     -0.2571     -0.1710
            y      -0.2560      2.6360     -0.0847
            z      -0.1727     -0.0813      2.7043
-------------------------------------------------------------------------------
    2 Sc    x       2.2285     -0.2571     -0.1710
            y      -0.2560      2.6360     -0.0846
            z      -0.1727     -0.0813      2.7044
-------------------------------------------------------------------------------
    3 Cl    x      -0.8062      0.2256      0.0411
            y       0.2160     -0.8834     -0.1927
            z       0.0553     -0.1841     -0.8334
-------------------------------------------------------------------------------
    4 Cl    x      -0.7835      0.1157      0.0049
            y       0.1062     -0.9970      0.2420
            z      -0.0106      0.2360     -0.7424
-------------------------------------------------------------------------------
    5 Cl    x      -0.6388     -0.0842      0.1250
            y      -0.0662     -0.7556      0.0353
            z       0.1280      0.0294     -1.1285
-------------------------------------------------------------------------------
    6 Cl    x      -0.6388     -0.0842      0.1250
            y      -0.0662     -0.7556      0.0353
            z       0.1280      0.0294     -1.1285
-------------------------------------------------------------------------------
    7 Cl    x      -0.7835      0.1157      0.0049
            y       0.1062     -0.9970      0.2420
            z      -0.0106      0.2360     -0.7424
-------------------------------------------------------------------------------
    8 Cl    x      -0.8062      0.2256      0.0411
            y       0.2160     -0.8834     -0.1927
            z       0.0553     -0.1841     -0.8334
-------------------------------------------------------------------------------




  Elastic Constant Matrix: (Units=GPa)

-------------------------------------------------------------------------------
  Indices      1         2         3         4         5         6    
-------------------------------------------------------------------------------
       1      3.6214    8.6385    8.0518    0.5781   -2.6064   -3.9922
       2      8.6385   31.8741   23.2528   -4.4482   -5.2569  -13.8933
       3      8.0518   23.2528   39.7403   -4.9820  -10.4619   -9.4746
       4      0.5781   -4.4482   -4.9820    7.0058   -1.6207    0.0048
       5     -2.6064   -5.2569  -10.4619   -1.6207    4.2787    3.1180
       6     -3.9922  -13.8933   -9.4746    0.0048    3.1180    6.9568
-------------------------------------------------------------------------------


  Elastic Compliance Matrix: (Units=1/GPa)

-------------------------------------------------------------------------------
  Indices      1         2         3         4         5         6    
-------------------------------------------------------------------------------
       1    4.139658 -2.323081 -1.150848 -3.167637 -2.310781 -2.793293
       2   -2.323081  2.746677 -0.244172  1.461210 -1.287173  4.395552
       3   -1.150848 -0.244172  1.480853  1.927327  4.035931 -0.941456
       4   -3.167637  1.461210  1.927327  3.842313  4.931639  1.512259
       5   -2.310781 -1.287173  4.035931  4.931639 11.609238 -3.606608
       6   -2.793293  4.395552 -0.941456  1.512259 -3.606608  7.652260
-------------------------------------------------------------------------------

  Mechanical properties :

-------------------------------------------------------------------------------
  Convention :                    Reuss         Voigt         Hill
-------------------------------------------------------------------------------
  Bulk  Modulus (GPa)     =       1.07413      17.23576       9.15495
  Shear Modulus (GPa)     =       0.12749       6.00110       3.06430
-------------------------------------------------------------------------------
  Velocity S-wave (km/s)  =       0.24541       1.68371       1.20315
  Velocity P-wave (km/s)  =       0.76663       3.45282       2.50097
-------------------------------------------------------------------------------
  Compressibility (1/GPa) =    0.93098656
-------------------------------------------------------------------------------
  Stress axis :                     x             y             z
-------------------------------------------------------------------------------
  Youngs Moduli (GPa)     =       0.24157       0.36408       0.67529
-------------------------------------------------------------------------------
  Poissons Ratio (x)      =                     0.84578       0.77715
  Poissons Ratio (y)      =       0.56118                     0.16489
  Poissons Ratio (z)      =       0.27801       0.08890
-------------------------------------------------------------------------------


  Piezoelectric Strain Matrix: (Units=C/m**2)

-------------------------------------------------------------------------------
  Indices      1         2         3         4         5         6    
-------------------------------------------------------------------------------
       x    -0.00008   0.00014   0.00001  -0.00009   0.00009  -0.00005
       y    -0.00004  -0.00012   0.00007   0.00004  -0.00006  -0.00002
       z    -0.00006  -0.00018  -0.00004  -0.00005   0.00002   0.00008
-------------------------------------------------------------------------------


  Piezoelectric Stress Matrix: (Units=10**-11 C/N)

-------------------------------------------------------------------------------
  Indices      1         2         3         4         5         6    
-------------------------------------------------------------------------------
       x    -0.04806   0.01066   0.03304   0.05336   0.08812  -0.00159
       y     0.01097  -0.01943   0.00109  -0.01104   0.00386  -0.03303
       z     0.00895  -0.00670  -0.00499  -0.01237  -0.01368  -0.00769
-------------------------------------------------------------------------------


  Static dielectric constant tensor : 

-------------------------------------------------------------------------------
              x         y         z
-------------------------------------------------------------------------------
       x     2.55749  -0.36997  -0.24788
       y    -0.36997   3.14505  -0.11962
       z    -0.24788  -0.11962   3.24356
--------------------------------------------------------------------------------

  High frequency dielectric constant tensor : 

-------------------------------------------------------------------------------
              x         y         z
-------------------------------------------------------------------------------
       x     1.82639  -0.04056  -0.02716
       y    -0.04056   1.89075  -0.01312
       z    -0.02716  -0.01312   1.90154
-------------------------------------------------------------------------------

  Static refractive indices : 

-------------------------------------------------------------------------------
    1 =    1.51614      2 =    1.82309      3 =    1.82312
-------------------------------------------------------------------------------

  High frequency refractive indices : 

-------------------------------------------------------------------------------
    1 =    1.34090      2 =    1.38214      3 =    1.38215
-------------------------------------------------------------------------------


  Time to end of optimisation =       0.3764 seconds

********************************************************************************
*  Defect calculation for configuration   1 :                                  *
********************************************************************************



!!!!!!!!!!!!!!!!!!!!!!!!!!!!!!!!!!!!!!!!!!!!!!!!!!!!!!!!!!!!!!!!!!!!!!!!!!!!!!!!
!! WARNING : Ambiguous vacancy specifier used
!!!!!!!!!!!!!!!!!!!!!!!!!!!!!!!!!!!!!!!!!!!!!!!!!!!!!!!!!!!!!!!!!!!!!!!!!!!!!!!!



!!!!!!!!!!!!!!!!!!!!!!!!!!!!!!!!!!!!!!!!!!!!!!!!!!!!!!!!!!!!!!!!!!!!!!!!!!!!!!!!
!! WARNING : Ambiguous vacancy specifier used
!!!!!!!!!!!!!!!!!!!!!!!!!!!!!!!!!!!!!!!!!!!!!!!!!!!!!!!!!!!!!!!!!!!!!!!!!!!!!!!!

  Total number of defects =      2

  Total charge on defect  =   1.00

  Defect centre is at   0.0737   0.4439   0.7053  Frac

  Region 1 radius =  11.0000      Number of ions =    319

  Region 2 radius =  24.0000      Number of ions =   3118

  Region 2a mode = 4 : screened electrostatics due to region 1 
                       neglect correction to region 1 forces from 2a
                       region 2a displacements based on defects only

  Region 2a ions will only interact with defects in region 1

  Vacancies:

--------------------------------------------------------------------------------
    Specification type     Symbol/Number         x          y          z
--------------------------------------------------------------------------------
    Atom                    Cl    core
    Atom                    Cl    shel
--------------------------------------------------------------------------------


  Components of defect energy : 

--------------------------------------------------------------------------------
  Region 1 - region 1                   =      5.46940888 eV
  Region 1 - region 2a (unrelaxed)      =      4.06506558 eV
  Region 1 - 2a (relaxed - correction)  =     -0.47230875 eV
  Region 1 (Total)                      =      9.06216572 eV
  Region 2a                             =      0.23619308 eV
  Region 2b                             =     -0.19638630 eV
--------------------------------------------------------------------------------
  Total defect energy                   =      9.10197250 eV
--------------------------------------------------------------------------------

  Largest displacement in region 2 =   0.0157 Angstroms


  Number of variables =      957

  Maximum number of calculations  =        1000
  Maximum Hessian update interval =          10
  Maximum step size               =   1.0000000
  Maximum parameter tolerance     =   0.0000100
  Maximum function  tolerance     =   0.0000100
  Maximum gradient  tolerance     =   0.0010000

  Symmetry adapted optimisation

  Newton-Raphson optimiser to be used

  BFGS hessian update to be used

  Lower half triangular hessian to be used

  Start of defect optimisation :

  Cycle:      0 Defect Energy:   9.101973  Gnorm:     0.017122  CPU:    3.724
  ** Hessian calculated **
  Cycle:      1 Defect Energy:   8.148768  Gnorm:     0.014083  CPU:   18.175
  Cycle:      2 Defect Energy:   6.983016  Gnorm:     0.009089  CPU:   29.078
  Cycle:      3 Defect Energy:   6.046455  Gnorm:     0.001591  CPU:   37.135
  Cycle:      4 Defect Energy:   5.995450  Gnorm:     0.001104  CPU:   38.724
  Cycle:      5 Defect Energy:   5.950320  Gnorm:     0.000748  CPU:   40.511
  Cycle:      6 Defect Energy:   5.926988  Gnorm:     0.000620  CPU:   41.635
  Cycle:      7 Defect Energy:   5.896973  Gnorm:     0.000449  CPU:   46.352
  Cycle:      8 Defect Energy:   5.892760  Gnorm:     0.000412  CPU:   48.250
  ** Hessian calculated **
  Cycle:      9 Defect Energy:   5.883941  Gnorm:     0.000289  CPU:   52.709
  Cycle:     10 Defect Energy:   5.879251  Gnorm:     0.000203  CPU:   54.508
  Cycle:     11 Defect Energy:   5.876600  Gnorm:     0.000143  CPU:   56.447
  Cycle:     12 Defect Energy:   5.875094  Gnorm:     0.000101  CPU:   58.078
  Cycle:     13 Defect Energy:   5.874253  Gnorm:     0.000072  CPU:   59.714
  Cycle:     14 Defect Energy:   5.873782  Gnorm:     0.000051  CPU:   61.457
  Cycle:     15 Defect Energy:   5.873526  Gnorm:     0.000036  CPU:   63.029
  Cycle:     16 Defect Energy:   5.873377  Gnorm:     0.000025  CPU:   64.576
  Cycle:     17 Defect Energy:   5.873293  Gnorm:     0.000018  CPU:   66.246
  Cycle:     18 Defect Energy:   5.873253  Gnorm:     0.000013  CPU:   67.909
  ** Hessian calculated **
  Cycle:     19 Defect Energy:   5.873232  Gnorm:     0.000009  CPU:   71.946
  Cycle:     20 Defect Energy:   5.873221  Gnorm:     0.000006  CPU:   73.487


  **** Optimisation achieved ****


  Final defect energy  =        5.87321463
  Final defect Gnorm   =        0.00000435

  Components of defect energy : 

--------------------------------------------------------------------------------
  Region 1 - region 1                   =      2.29062161 eV
  Region 1 - region 2a (unrelaxed)      =      3.99773287 eV
  Region 1 - 2a (relaxed - correction)  =     -0.43710781 eV
  Region 1 (Total)                      =      5.85124668 eV
  Region 2a                             =      0.21854283 eV
  Region 2b                             =     -0.19657488 eV
--------------------------------------------------------------------------------
  Total defect energy                   =      5.87321463 eV
--------------------------------------------------------------------------------

  Largest displacement in region 2 =   0.0157 Angstroms

  Final coordinates of region 1 :

--------------------------------------------------------------------------------
   No.  Atomic        x           y           z          Radius      Charge
        Label       (Angs)      (Angs)      (Angs)       (Angs)       (e) 
--------------------------------------------------------------------------------
     1  Sc    c     3.280872    5.634332    3.770588    0.000000    3.000000
     2  Sc    c     5.612001    2.281191    1.532504    0.000000    3.000000
     3  Cl    c     3.886083    3.867331    2.202774    0.000000    1.485000
     4  Cl    c     4.198415    6.427411    5.901498    0.000000    1.485000
     5  Cl    c     7.673008    1.455426    2.575815    0.000000    1.485000
     6  Cl    c     6.843254    4.083994    0.384776    0.000000    1.485000
     7  Cl    c     4.631013    7.254987    2.494918    0.000000    1.485000
     8  Cl    c     2.183080    3.893455    5.115627    0.000000    1.485000
     9  Cl    c     4.468852    0.618445    2.935686    0.000000    1.485000
    10  Cl    c     9.843404    3.880743    5.029776    0.000000    1.485000
    11  Cl    c     4.830178    3.623663    7.802644    0.000000    1.485000
    12  Cl    c     9.148264    6.685969    3.018932    0.000000    1.485000
    13  Cl    c     6.879360    0.687140    5.847449    0.000000    1.485000
    14  Cl    c     8.094866    6.189334    7.052822    0.000000    1.485000
    15  Sc    c     2.748504    4.923441    7.383824    0.000000    3.000000
    16  Sc    c     6.595540   -0.566398    3.716781    0.000000    3.000000
    17  Cl    c     1.324974    6.798914    2.884551    0.000000    1.485000
    18  Cl    c     5.070087    1.442598   -0.695754    0.000000    1.485000
    19  Sc    c    11.247064    5.443314    3.643030    0.000000    3.000000
    20  Cl    c    10.917208    3.943216    1.656191    0.000000    1.485000
    21  Sc    c    10.290391    4.981455    7.250477    0.000000    3.000000
    22  Cl    c     3.404521    0.301096    7.040723    0.000000    1.485000
    23  Sc    c     2.649376    8.665062    1.723250    0.000000    3.000000
    24  Cl    c     9.145619    3.083106    8.421793    0.000000    1.485000
    25  Sc    c     6.519510    3.142919   -1.962746    0.000000    3.000000
    26  Cl    c     7.038986    9.715669    5.036333    0.000000    1.485000
    27  Sc    c     3.711769    1.744813    9.071037    0.000000    3.000000
    28  Sc    c     5.572883   -0.937478    7.279758    0.000000    3.000000
    29  Cl    c     1.613614    3.019210    8.499866    0.000000    1.485000
    30  Cl    c     5.189365   -2.096267    5.076344    0.000000    1.485000
    31  Cl    c     4.443548    4.436060   -2.431083    0.000000    1.485000
    32  Cl    c     2.340687    7.448785   -0.426043    0.000000    1.485000
    33  Cl    c     8.081254    9.788335    1.659030    0.000000    1.485000
    34  Cl    c     3.098441    6.461438    9.300565    0.000000    1.485000
    35  Cl    c     5.913075    0.573521    9.243395    0.000000    1.485000
    36  Cl    c     0.187239    1.446253    2.413634    0.000000    1.485000
    37  Cl    c     2.996512    9.986087    3.809331    0.000000    1.485000
    38  Cl    c     8.799262   -1.698377    3.850315    0.000000    1.485000
    39  Cl    c     0.653825    6.232181    7.035647    0.000000    1.485000
    40  Sc    c    10.284081    8.597986    1.835167    0.000000    3.000000
    41  Cl    c     6.324495   -1.884228    1.614779    0.000000    1.485000
    42  Cl    c     5.879095    7.769620   -1.564984    0.000000    1.485000
    43  Cl    c     8.646499    1.899385   -1.590075    0.000000    1.485000
    44  Cl    c    11.636447    6.564242    5.847026    0.000000    1.485000
    45  Cl    c     6.317223    8.928360    8.415801    0.000000    1.485000
    46  Cl    c     9.871571    7.471285   -0.366983    0.000000    1.485000
    47  Sc    c     8.407944    7.689363    9.053778    0.000000    3.000000
    48  Cl    c     7.042985    6.101799   10.434933    0.000000    1.485000
    49  Cl    c    11.977433    0.849752    3.029123    0.000000    1.485000
    50  Cl    c     4.141385   10.146419    0.398796    0.000000    1.485000
    51  Cl    c    10.921961    0.345886    7.047166    0.000000    1.485000
    52  Cl    c     7.679054    5.086406   -2.986004    0.000000    1.485000
    53  Cl    c    -0.508402    4.255911    0.416590    0.000000    1.485000
    54  Cl    c    12.362450    7.333231    2.442107    0.000000    1.485000
    55  Cl    c    -1.569750    4.182254    3.780804    0.000000    1.485000
    56  Cl    c     1.260246   -1.647759    3.784790    0.000000    1.485000
    57  Cl    c     1.248089    1.951403   -1.601569    0.000000    1.485000
    58  Cl    c    10.588448    6.467707    9.242486    0.000000    1.485000
    59  Cl    c    13.417215    4.216848    3.839501    0.000000    1.485000
    60  Cl    c    10.579910   10.065378    3.843491    0.000000    1.485000
    61  Sc    c     8.406272   11.301636    3.643624    0.000000    3.000000
    62  Cl    c    -0.529202    0.672088    5.804041    0.000000    1.485000
    63  Sc    c    13.119823    2.735940    1.832761    0.000000    3.000000
    64  Cl    c     2.302059   -1.564129    0.407478    0.000000    1.485000
    65  Sc    c     7.454843   10.840723    7.247015    0.000000    3.000000
    66  Cl    c    12.364236    3.711664    7.838575    0.000000    1.485000
    67  Cl    c     9.534680    9.567543    7.838592    0.000000    1.485000
    68  Cl    c     7.679187   -2.160346    7.824330    0.000000    1.485000
    69  Sc    c     3.730532    9.034458   -1.821455    0.000000    3.000000
    70  Cl    c     4.122890    2.926289   11.228719    0.000000    1.485000
    71  Sc    c     5.593350    6.350672   -3.613163    0.000000    3.000000
    72  Cl    c     2.052607    9.562614    7.815158    0.000000    1.485000
    73  Cl    c     9.801447   -1.529458    0.412687    0.000000    1.485000
    74  Sc    c    11.234456    1.825006    9.052410    0.000000    3.000000
    75  Sc    c     0.918465    7.716750    9.063384    0.000000    3.000000
    76  Sc    c     8.500614   -3.152093    1.803377    0.000000    3.000000
    77  Cl    c     0.504033    9.901094    1.572600    0.000000    1.485000
    78  Cl    c     6.264646    1.656126   -3.933410    0.000000    1.485000
    79  Sc    c    -1.913884    2.684367    1.792211    0.000000    3.000000
    80  Sc    c    -0.944737   -0.461689    3.607204    0.000000    3.000000
    81  Cl    c    12.696800    1.622977   -0.374244    0.000000    1.485000
    82  Cl    c     6.321289   12.553371    3.028071    0.000000    1.485000
    83  Cl    c     2.365546    0.176814   10.458727    0.000000    1.485000
    84  Cl    c     4.454778   -2.816508    8.466544    0.000000    1.485000
    85  Cl    c    -0.458886    9.681018    5.034235    0.000000    1.485000
    86  Cl    c     7.304738   -1.432849   -2.382498    0.000000    1.485000
    87  Cl    c     5.267708   12.049559    7.051929    0.000000    1.485000
    88  Cl    c     9.864665    0.248045   10.439847    0.000000    1.485000
    89  Sc    c     0.849610   11.302771    3.646721    0.000000    3.000000
    90  Sc    c     8.443002    0.416814   -3.624636    0.000000    3.000000
    91  Cl    c     3.402757    7.542496   -3.803521    0.000000    1.485000
    92  Cl    c    11.983180    4.458512   -2.372813    0.000000    1.485000
    93  Sc    c    -0.945301    3.162009   -1.807945    0.000000    3.000000
    94  Cl    c     0.203213    5.057000   -2.981363    0.000000    1.485000
    95  Cl    c     3.030506   -0.784424   -2.971528    0.000000    1.485000
    96  Cl    c     8.810531   12.418087    5.848024    0.000000    1.485000
    97  Cl    c    11.633864   10.180301    0.442813    0.000000    1.485000
    98  Cl    c     8.095475    2.584631   12.450884    0.000000    1.485000
    99  Sc    c     0.940517   -3.157512    1.799159    0.000000    3.000000
   100  Sc    c    11.246512    9.053067   -1.765263    0.000000    3.000000
   101  Cl    c    -2.615897    7.286299    2.413108    0.000000    1.485000
   102  Cl    c     3.032456   -4.397060    2.414430    0.000000    1.485000
   103  Cl    c     8.803313    8.809880   11.253891    0.000000    1.485000
   104  Cl    c    14.456969    4.331456    0.440534    0.000000    1.485000
   105  Cl    c    12.690262   -1.984356    5.032232    0.000000    1.485000
   106  Cl    c     9.154911   10.303982   -2.367325    0.000000    1.485000
   107  Cl    c    -0.424056    6.089398   10.407323    0.000000    1.485000
   108  Cl    c     7.320245   -4.996516    3.009269    0.000000    1.485000
   109  Sc    c    14.068828   -0.411571    3.644040    0.000000    3.000000
   110  Cl    c    -2.617800    3.682369    7.810193    0.000000    1.485000
   111  Cl    c     0.203050   -2.163927    7.808985    0.000000    1.485000
   112  Sc    c    13.113474   -0.873180    7.243323    0.000000    3.000000
   113  Sc    c     7.455238    7.217615   12.653948    0.000000    3.000000
   114  Cl    c    11.623857    2.959471   11.248716    0.000000    1.485000
   115  Cl    c    14.456604    0.721030    5.845791    0.000000    1.485000
   116  Sc    c    -0.048014   10.825127    7.236453    0.000000    3.000000
   117  Sc    c     9.405681   -2.684770   -1.787825    0.000000    3.000000
   118  Cl    c    -3.026881    0.796770    2.996456    0.000000    1.485000
   119  Cl    c    -2.298654    1.573370   -0.415922    0.000000    1.485000
   120  Cl    c     1.321038   12.395449    5.842299    0.000000    1.485000
   121  Cl    c    10.533633   -0.784930   -2.968631    0.000000    1.485000
   122  Cl    c     6.960583    7.932204   -4.973987    0.000000    1.485000
   123  Cl    c     4.882045   10.910014   -2.992551    0.000000    1.485000
   124  Cl    c     5.270324    8.432266   12.446501    0.000000    1.485000
   125  Cl    c    -1.173181    8.930036    8.426022    0.000000    1.485000
   126  Cl    c    -1.237766   -1.931193    1.599098    0.000000    1.485000
   127  Sc    c     0.939828    0.455455   -3.605074    0.000000    3.000000
   128  Cl    c     8.045713   -4.259073   -0.390515    0.000000    1.485000
   129  Cl    c     1.649632   10.299290   -2.374288    0.000000    1.485000
   130  Cl    c     5.220706    5.192316   -5.792035    0.000000    1.485000
   131  Cl    c    10.924853    7.554907   -3.752318    0.000000    1.485000
   132  Sc    c    -3.765393    5.402093    3.608253    0.000000    3.000000
   133  Cl    c    -3.325213    6.513312    5.811672    0.000000    1.485000
   134  Sc    c     1.893843   -2.695239   -1.801388    0.000000    3.000000
   135  Sc    c     2.777109    1.343075   12.652607    0.000000    3.000000
   136  Sc    c     6.568127   -4.063602    9.041009    0.000000    3.000000
   137  Cl    c     2.312105    2.042038   -4.982077    0.000000    1.485000
   138  Cl    c    15.196974    1.478885    2.442497    0.000000    1.485000
   139  Cl    c     9.540424   13.176373    2.437391    0.000000    1.485000
   140  Cl    c     1.316145    8.818593   11.261595    0.000000    1.485000
   141  Cl    c    10.562561   -4.409577    2.418667    0.000000    1.485000
   142  Cl    c     2.036555   13.138785    2.434289    0.000000    1.485000
   143  Cl    c     9.780014    2.053576   -4.962990    0.000000    1.485000
   144  Cl    c    -1.557548    0.590580    9.190101    0.000000    1.485000
   145  Sc    c    -1.889269   -0.915221    7.210471    0.000000    3.000000
   146  Cl    c    -1.562027    7.792451   -1.598756    0.000000    1.485000
   147  Cl    c    13.416589    0.613252    9.240875    0.000000    1.485000
   148  Cl    c     4.087705   -3.891061   -1.603569    0.000000    1.485000
   149  Cl    c     7.759695   12.310883    9.248602    0.000000    1.485000
   150  Cl    c    13.418255    7.824566   -1.559043    0.000000    1.485000
   151  Sc    c    14.073327    3.200957   -1.768241    0.000000    3.000000
   152  Cl    c     6.317679    5.320219   13.832035    0.000000    1.485000
   153  Cl    c     7.057239   13.314169   -0.360648    0.000000    1.485000
   154  Cl    c    13.746683   -1.892423    1.645562    0.000000    1.485000
   155  Cl    c    -4.077362    3.921873    1.604289    0.000000    1.485000
   156  Sc    c    10.280566    1.365555   12.653285    0.000000    3.000000
   157  Cl    c     2.300604   -5.167473    5.808500    0.000000    1.485000
   158  Cl    c     0.607416    2.572478   12.422260    0.000000    1.485000
   159  Cl    c     6.258334   -5.513609    7.020919    0.000000    1.485000
   160  Cl    c     9.535774    5.951965   13.241984    0.000000    1.485000
   161  Cl    c     4.867999    0.089025   13.223338    0.000000    1.485000
   162  Cl    c    11.969983   -2.759956    8.430296    0.000000    1.485000
   163  Cl    c    13.809886    8.948906    8.442099    0.000000    1.485000
   164  Cl    c     2.039922    5.927529   13.203459    0.000000    1.485000
   165  Cl    c    14.533166    9.727837    5.049932    0.000000    1.485000
   166  Cl    c     6.961818   -2.910078   11.226577    0.000000    1.485000
   167  Cl    c     4.226829   11.944318   10.436409    0.000000    1.485000
   168  Cl    c     9.770027   -5.136908    5.819318    0.000000    1.485000
   169  Cl    c    -2.286108   -2.044440    5.004443    0.000000    1.485000
   170  Cl    c    -0.187228   -1.425940   -2.395421    0.000000    1.485000
   171  Cl    c    15.581997    6.206795    7.064977    0.000000    1.485000
   172  Sc    c    13.122668    6.350946   -3.571727    0.000000    3.000000
   173  Sc    c     7.461836   14.454794    1.838091    0.000000    3.000000
   174  Sc    c     5.580457   13.544083    9.054007    0.000000    3.000000
   175  Cl    c    -1.238041    1.677693   -3.801859    0.000000    1.485000
   176  Cl    c    -3.016943    4.433947   -2.394733    0.000000    1.485000
   177  Cl    c     0.542830   -4.275681   -0.404045    0.000000    1.485000
   178  Sc    c     8.405389    4.067672   14.457463    0.000000    3.000000
   179  Cl    c    12.754881   12.054478    7.069454    0.000000    1.485000
   180  Sc    c    -1.883906    6.318385   -3.608165    0.000000    3.000000
   181  Cl    c    -1.210298   12.567878    3.042417    0.000000    1.485000
   182  Cl    c     8.057376   -0.690958   -5.821395    0.000000    1.485000
   183  Cl    s     3.981836    3.882600    2.279120    0.000000   -2.485000
   184  Cl    s     4.045149    6.274910    5.819052    0.000000   -2.485000
   185  Cl    s     7.447531    1.405237    2.563472    0.000000   -2.485000
   186  Cl    s     4.416539    7.211501    2.545363    0.000000   -2.485000
   187  Cl    s     6.730251    3.896089    0.337046    0.000000   -2.485000
   188  Cl    s     2.303181    4.085991    5.143195    0.000000   -2.485000
   189  Cl    s     4.679915    0.680449    2.874372    0.000000   -2.485000
   190  Cl    s     4.618621    3.596639    7.846257    0.000000   -2.485000
   191  Cl    s     6.776651    0.505266    5.786070    0.000000   -2.485000
   192  Cl    s     9.954490    4.048097    5.079672    0.000000   -2.485000
   193  Cl    s     9.345755    6.724035    2.983673    0.000000   -2.485000
   194  Cl    s     8.250108    6.204289    7.187460    0.000000   -2.485000
   195  Cl    s     1.558257    6.808985    2.889357    0.000000   -2.485000
   196  Cl    s     5.193922    1.607358   -0.586133    0.000000   -2.485000
   197  Cl    s    11.073545    3.962348    1.794857    0.000000   -2.485000
   198  Cl    s     3.565825    0.316739    7.184363    0.000000   -2.485000
   199  Cl    s     9.349362    3.126512    8.383707    0.000000   -2.485000
   200  Cl    s     7.149930    9.885021    5.086937    0.000000   -2.485000
   201  Cl    s     1.826561    3.073018    8.455603    0.000000   -2.485000
   202  Cl    s     5.311962   -1.913864    5.119641    0.000000   -2.485000
   203  Cl    s    11.521546    6.386862    5.792758    0.000000   -2.485000
   204  Cl    s     2.449575    7.626535   -0.361873    0.000000   -2.485000
   205  Cl    s     4.656527    4.465746   -2.467252    0.000000   -2.485000
   206  Cl    s     5.743455    0.552086    9.099728    0.000000   -2.485000
   207  Cl    s     8.241234    9.805351    1.796075    0.000000   -2.485000
   208  Cl    s     2.938921    6.430915    9.148975    0.000000   -2.485000
   209  Cl    s     8.624397   -1.706755    3.713543    0.000000   -2.485000
   210  Cl    s     0.816422    6.236795    7.178269    0.000000   -2.485000
   211  Cl    s     6.477930   -1.866293    1.766114    0.000000   -2.485000
   212  Cl    s     2.838594    9.972803    3.658958    0.000000   -2.485000
   213  Cl    s     8.485309    1.890979   -1.737346    0.000000   -2.485000
   214  Cl    s     5.719195    7.757561   -1.712527    0.000000   -2.485000
   215  Cl    s     6.521744    8.969119    8.380208    0.000000   -2.485000
   216  Cl    s    -0.010962    1.408138    2.449350    0.000000   -2.485000
   217  Cl    s     9.982157    7.642072   -0.312111    0.000000   -2.485000
   218  Cl    s     4.011231    9.970392    0.350211    0.000000   -2.485000
   219  Cl    s     7.464403    5.030640   -2.952726    0.000000   -2.485000
   220  Cl    s     7.155531    6.274172   10.483644    0.000000   -2.485000
   221  Cl    s    12.152223    7.289968    2.481731    0.000000   -2.485000
   222  Cl    s    12.179841    0.891996    2.990338    0.000000   -2.485000
   223  Cl    s    11.078730    0.363667    7.186802    0.000000   -2.485000
   224  Cl    s    10.425685    6.448949    9.098244    0.000000   -2.485000
   225  Cl    s    13.252807    4.202494    3.697153    0.000000   -2.485000
   226  Cl    s    10.418404   10.048180    3.698730    0.000000   -2.485000
   227  Cl    s    -0.618989    4.088409    0.365651    0.000000   -2.485000
   228  Cl    s    12.153337    3.674112    7.876778    0.000000   -2.485000
   229  Cl    s     9.325279    9.526004    7.878997    0.000000   -2.485000
   230  Cl    s     1.100137   -1.665446    3.646743    0.000000   -2.485000
   231  Cl    s    -1.725256    4.165248    3.642582    0.000000   -2.485000
   232  Cl    s     1.093433    1.936136   -1.736831    0.000000   -2.485000
   233  Cl    s     7.466799   -2.197410    7.862068    0.000000   -2.485000
   234  Cl    s     4.009563    2.748175   11.170516    0.000000   -2.485000
   235  Cl    s    -0.639403    0.500305    5.749528    0.000000   -2.485000
   236  Cl    s     1.845240    9.517565    7.859069    0.000000   -2.485000
   237  Cl    s     2.192837   -1.732807    0.356606    0.000000   -2.485000
   238  Cl    s     9.687808   -1.707864    0.365821    0.000000   -2.485000
   239  Cl    s     0.677364    9.898913    1.711784    0.000000   -2.485000
   240  Cl    s     6.417249    1.684215   -3.773961    0.000000   -2.485000
   241  Cl    s     2.484346    0.358141   10.500415    0.000000   -2.485000
   242  Cl    s     4.664154   -2.764250    8.420240    0.000000   -2.485000
   243  Cl    s    12.809689    1.795362   -0.319823    0.000000   -2.485000
   244  Cl    s     6.526937   12.591129    2.992117    0.000000   -2.485000
   245  Cl    s     3.570063    7.561355   -3.658234    0.000000   -2.485000
   246  Cl    s    -0.344401    9.857882    5.082120    0.000000   -2.485000
   247  Cl    s     7.511979   -1.387863   -2.424328    0.000000   -2.485000
   248  Cl    s     5.428475   12.064034    7.190090    0.000000   -2.485000
   249  Cl    s     9.978887    0.421764   10.489843    0.000000   -2.485000
   250  Cl    s     8.694733   12.240985    5.794151    0.000000   -2.485000
   251  Cl    s    11.518648   10.002273    0.391846    0.000000   -2.485000
   252  Cl    s    12.187177    4.498237   -2.410187    0.000000   -2.485000
   253  Cl    s     2.825281   -0.825185   -2.935292    0.000000   -2.485000
   254  Cl    s    -0.001133    5.014170   -2.943335    0.000000   -2.485000
   255  Cl    s     8.689771    8.632879   11.197038    0.000000   -2.485000
   256  Cl    s    14.343017    4.153942    0.389780    0.000000   -2.485000
   257  Cl    s     8.254771    2.600654   12.590355    0.000000   -2.485000
   258  Cl    s    12.804648   -1.810960    5.084358    0.000000   -2.485000
   259  Cl    s     2.826391   -4.436034    2.450821    0.000000   -2.485000
   260  Cl    s    -0.308926    6.266892   10.458332    0.000000   -2.485000
   261  Cl    s    -2.819491    7.245561    2.451613    0.000000   -2.485000
   262  Cl    s     7.529629   -4.953177    2.968948    0.000000   -2.485000
   263  Cl    s    11.511186    2.782915   11.192992    0.000000   -2.485000
   264  Cl    s    -2.816479    0.840954    2.956286    0.000000   -2.485000
   265  Cl    s    14.343116    0.544406    5.792130    0.000000   -2.485000
   266  Cl    s     9.360108   10.343419   -2.404534    0.000000   -2.485000
   267  Cl    s    -2.183939    1.750316   -0.359759    0.000000   -2.485000
   268  Cl    s     1.200447   12.218073    5.785795    0.000000   -2.485000
   269  Cl    s    10.319026   -0.828514   -2.933961    0.000000   -2.485000
   270  Cl    s    -1.075913   -1.913465    1.743495    0.000000   -2.485000
   271  Cl    s    -0.959260    8.973055    8.389209    0.000000   -2.485000
   272  Cl    s     8.164499   -4.080727   -0.335249    0.000000   -2.485000
   273  Cl    s    14.985637    1.439003    2.480254    0.000000   -2.485000
   274  Cl    s     6.842475    7.751730   -5.021769    0.000000   -2.485000
   275  Cl    s     4.670606   10.862425   -2.949822    0.000000   -2.485000
   276  Cl    s    -0.002802   -2.202904    7.846316    0.000000   -2.485000
   277  Cl    s    -2.822281    3.642902    7.847978    0.000000   -2.485000
   278  Cl    s     1.863197   10.333924   -2.411794    0.000000   -2.485000
   279  Cl    s     5.332815    5.371117   -5.731512    0.000000   -2.485000
   280  Cl    s     9.331247   13.133207    2.478481    0.000000   -2.485000
   281  Cl    s    11.084716    7.573708   -3.611632    0.000000   -2.485000
   282  Cl    s    13.252269    0.596588    9.098063    0.000000   -2.485000
   283  Cl    s     5.430108    8.447988   12.585902    0.000000   -2.485000
   284  Cl    s     1.203104    8.639992   11.197037    0.000000   -2.485000
   285  Cl    s    10.346695   -4.442146    2.453377    0.000000   -2.485000
   286  Cl    s     7.598762   12.292024    9.103331    0.000000   -2.485000
   287  Cl    s    -3.439664    6.340914    5.757284    0.000000   -2.485000
   288  Cl    s    13.255381    7.809813   -1.701407    0.000000   -2.485000
   289  Cl    s     2.199457    1.869362   -5.032164    0.000000   -2.485000
   290  Cl    s     1.825919   13.096490    2.475019    0.000000   -2.485000
   291  Cl    s     9.665250    1.874952   -5.015129    0.000000   -2.485000
   292  Cl    s    -1.718808    0.571525    9.049888    0.000000   -2.485000
   293  Cl    s    -3.911599    3.935354    1.746352    0.000000   -2.485000
   294  Cl    s     3.926407   -3.906951   -1.742203    0.000000   -2.485000
   295  Cl    s     6.524555    5.363242   13.794020    0.000000   -2.485000
   296  Cl    s    -1.720243    7.776217   -1.737943    0.000000   -2.485000
   297  Cl    s    -2.170369   -1.865734    5.054218    0.000000   -2.485000
   298  Cl    s     9.326248    5.913188   13.280439    0.000000   -2.485000
   299  Cl    s     7.168720   13.487140   -0.308282    0.000000   -2.485000
   300  Cl    s    13.905211   -1.874017    1.786926    0.000000   -2.485000
   301  Cl    s     0.022482   -1.383905   -2.435166    0.000000   -2.485000
   302  Cl    s     0.769551    2.587088   12.563897    0.000000   -2.485000
   303  Cl    s     6.418281   -5.495862    7.164658    0.000000   -2.485000
   304  Cl    s     4.658160    0.050967   13.261010    0.000000   -2.485000
   305  Cl    s     6.849073   -3.086196   11.170332    0.000000   -2.485000
   306  Cl    s    12.176069   -2.716818    8.391265    0.000000   -2.485000
   307  Cl    s     1.832178    5.889787   13.242823    0.000000   -2.485000
   308  Cl    s     2.189613   -5.340128    5.754439    0.000000   -2.485000
   309  Cl    s     9.659292   -5.312734    5.764864    0.000000   -2.485000
   310  Cl    s     4.338786   12.117717   10.487809    0.000000   -2.485000
   311  Cl    s    14.015879    8.989886    8.405273    0.000000   -2.485000
   312  Cl    s    14.646171    9.900477    5.102053    0.000000   -2.485000
   313  Cl    s    -1.075018    1.696069   -3.656421    0.000000   -2.485000
   314  Cl    s    15.741477    6.224010    7.204569    0.000000   -2.485000
   315  Cl    s     0.658498   -4.097042   -0.349889    0.000000   -2.485000
   316  Cl    s    -2.805229    4.471012   -2.432809    0.000000   -2.485000
   317  Cl    s    -0.993649   12.599056    3.005724    0.000000   -2.485000
   318  Cl    s     8.168973   -0.510392   -5.756550    0.000000   -2.485000
   319  Cl    s    12.915284   12.071667    7.208809    0.000000   -2.485000
--------------------------------------------------------------------------------

  Final coordinates of symmetry reduced region 1 (relative to defect centre):

--------------------------------------------------------------------------------
   No.  Atomic        x           y           z          Charge
        Label       (Angs)      (Angs)      (Angs)         (e) 
--------------------------------------------------------------------------------
     1  Sc    c    -2.631783    1.434627   -0.061050    3.000000
     2  Sc    c    -0.300654   -1.918514   -2.299134    3.000000
     3  Cl    c    -2.026572   -0.332374   -1.628864    1.485000
     4  Cl    c    -1.714241    2.227706    2.069860    1.485000
     5  Cl    c     1.760353   -2.744279   -1.255823    1.485000
     6  Cl    c     0.930598   -0.115711   -3.446862    1.485000
     7  Cl    c    -1.281642    3.055282   -1.336720    1.485000
     8  Cl    c    -3.729575   -0.306250    1.283989    1.485000
     9  Cl    c    -1.443803   -3.581260   -0.895952    1.485000
    10  Cl    c     3.930749   -0.318962    1.198138    1.485000
    11  Cl    c    -1.082477   -0.576042    3.971006    1.485000
    12  Cl    c     3.235608    2.486264   -0.812706    1.485000
    13  Cl    c     0.966704   -3.512565    2.015811    1.485000
    14  Cl    c     2.182210    1.989629    3.221185    1.485000
    15  Sc    c    -3.164152    0.723736    3.552187    3.000000
    16  Sc    c     0.682885   -4.766103   -0.114857    3.000000
    17  Cl    c    -4.587681    2.599209   -0.947087    1.485000
    18  Cl    c    -0.842569   -2.757107   -4.527392    1.485000
    19  Sc    c     5.334408    1.243609   -0.188608    3.000000
    20  Cl    c     5.004552   -0.256489   -2.175447    1.485000
    21  Sc    c     4.377736    0.781750    3.418839    3.000000
    22  Cl    c    -2.508134   -3.898609    3.209085    1.485000
    23  Sc    c    -3.263279    4.465357   -2.108387    3.000000
    24  Cl    c     3.232964   -1.116599    4.590155    1.485000
    25  Sc    c     0.606855   -1.056786   -5.794384    3.000000
    26  Cl    c     1.126330    5.515964    1.204695    1.485000
    27  Sc    c    -2.200886   -2.454892    5.239399    3.000000
    28  Sc    c    -0.339772   -5.137183    3.448120    3.000000
    29  Cl    c    -4.299042   -1.180495    4.668228    1.485000
    30  Cl    c    -0.723290   -6.295972    1.244706    1.485000
    31  Cl    c    -1.469108    0.236354   -6.262721    1.485000
    32  Cl    c    -3.571968    3.249079   -4.257681    1.485000
    33  Cl    c     2.168599    5.588630   -2.172608    1.485000
    34  Cl    c    -2.814214    2.261733    5.468927    1.485000
    35  Cl    c     0.000419   -3.626184    5.411757    1.485000
    36  Cl    c    -5.725417   -2.753452   -1.418004    1.485000
    37  Cl    c    -2.916144    5.786382   -0.022307    1.485000
    38  Cl    c     2.886607   -5.898082    0.018677    1.485000
    39  Cl    c    -5.258831    2.032476    3.204009    1.485000
    40  Sc    c     4.371426    4.398281   -1.996471    3.000000
    41  Cl    c     0.411839   -6.083934   -2.216859    1.485000
    42  Cl    c    -0.033561    3.569915   -5.396622    1.485000
    43  Cl    c     2.733844   -2.300320   -5.421713    1.485000
    44  Cl    c     5.723792    2.364537    2.015389    1.485000
    45  Cl    c     0.404568    4.728655    4.584163    1.485000
    46  Cl    c     3.958916    3.271580   -4.198621    1.485000
    47  Sc    c     2.495288    3.489658    5.222140    3.000000
    48  Cl    c     1.130329    1.902094    6.603295    1.485000
    49  Cl    c     6.064777   -3.349953   -0.802515    1.485000
    50  Cl    c    -1.771271    5.946714   -3.432841    1.485000
    51  Cl    c     5.009305   -3.853819    3.215528    1.485000
    52  Cl    c     1.766398    0.886701   -6.817642    1.485000
    53  Cl    c    -6.421057    0.056206   -3.415048    1.485000
    54  Cl    c     6.449795    3.133526   -1.389531    1.485000
    55  Cl    c    -7.482405   -0.017451   -0.050834    1.485000
    56  Cl    c    -4.652410   -5.847464   -0.046848    1.485000
    57  Cl    c    -4.664567   -2.248302   -5.433206    1.485000
    58  Cl    c     4.675793    2.268002    5.410848    1.485000
    59  Cl    c     7.504559    0.017143    0.007864    1.485000
    60  Cl    c     4.667254    5.865672    0.011853    1.485000
    61  Sc    c     2.493617    7.101931   -0.188014    3.000000
    62  Cl    c    -6.441858   -3.527617    1.972403    1.485000
    63  Sc    c     7.207167   -1.463765   -1.998877    3.000000
    64  Cl    c    -3.610597   -5.763834   -3.424160    1.485000
    65  Sc    c     1.542187    6.641018    3.415377    3.000000
    66  Cl    c     6.451580   -0.488041    4.006937    1.485000
    67  Cl    c     3.622024    5.367838    4.006954    1.485000
    68  Cl    c     1.766531   -6.360051    3.992692    1.485000
    69  Sc    c    -2.182123    4.834753   -5.653093    3.000000
    70  Cl    c    -1.789765   -1.273416    7.397081    1.485000
    71  Sc    c    -0.319306    2.150967   -7.444801    3.000000
    72  Cl    c    -3.860048    5.362909    3.983520    1.485000
    73  Cl    c     3.888791   -5.729163   -3.418951    1.485000
    74  Sc    c     5.321801   -2.374699    5.220772    3.000000
    75  Sc    c    -4.994190    3.517045    5.231746    3.000000
    76  Sc    c     2.587958   -7.351798   -2.028261    3.000000
    77  Cl    c    -5.408623    5.701389   -2.259038    1.485000
    78  Cl    c     0.351990   -2.543579   -7.765048    1.485000
    79  Sc    c    -7.826539   -1.515338   -2.039427    3.000000
    80  Sc    c    -6.857393   -4.661394   -0.224434    3.000000
    81  Cl    c     6.784144   -2.576728   -4.205882    1.485000
    82  Cl    c     0.408634    8.353666   -0.803567    1.485000
    83  Cl    c    -3.547110   -4.022891    6.627089    1.485000
    84  Cl    c    -1.457877   -7.016213    4.634906    1.485000
    85  Cl    c    -6.371542    5.481313    1.202597    1.485000
    86  Cl    c     1.392083   -5.632554   -6.214136    1.485000
    87  Cl    c    -0.644948    7.849854    3.220291    1.485000
    88  Cl    c     3.952010   -3.951660    6.608209    1.485000
    89  Sc    c    -5.063046    7.103066   -0.184917    3.000000
    90  Sc    c     2.530346   -3.782891   -7.456274    3.000000
    91  Cl    c    -2.509898    3.342791   -7.635159    1.485000
    92  Cl    c     6.070525    0.258807   -6.204450    1.485000
    93  Sc    c    -6.857957   -1.037696   -5.639583    3.000000
    94  Cl    c    -5.709443    0.857295   -6.813000    1.485000
    95  Cl    c    -2.882149   -4.984129   -6.803166    1.485000
    96  Cl    c     2.897876    8.218382    2.016386    1.485000
    97  Cl    c     5.721209    5.980596   -3.388825    1.485000
    98  Cl    c     2.182819   -1.615074    8.619246    1.485000
    99  Sc    c    -4.972139   -7.357217   -2.032479    3.000000
   100  Sc    c     5.333856    4.853362   -5.596901    3.000000
   101  Cl    c    -8.528552    3.086594   -1.418530    1.485000
   102  Cl    c    -2.880199   -8.596765   -1.417208    1.485000
   103  Cl    c     2.890657    4.610175    7.422254    1.485000
   104  Cl    c     8.544314    0.131751   -3.391103    1.485000
   105  Cl    c     6.777606   -6.184062    1.200595    1.485000
   106  Cl    c     3.242256    6.104277   -6.198963    1.485000
   107  Cl    c    -6.336711    1.889693    6.575685    1.485000
   108  Cl    c     1.407590   -9.196221   -0.822369    1.485000
   109  Sc    c     8.156172   -4.611276   -0.187597    3.000000
   110  Cl    c    -8.530455   -0.517336    3.978556    1.485000
   111  Cl    c    -5.709605   -6.363632    3.977347    1.485000
   112  Sc    c     7.200819   -5.072885    3.411686    3.000000
   113  Sc    c     1.542583    3.017910    8.822310    3.000000
   114  Cl    c     5.711202   -1.240234    7.417078    1.485000
   115  Cl    c     8.543948   -3.478675    2.014153    1.485000
   116  Sc    c    -5.960670    6.625422    3.404815    3.000000
   117  Sc    c     3.493026   -6.884475   -5.619462    3.000000
   118  Cl    c    -8.939536   -3.402936   -0.835182    1.485000
   119  Cl    c    -8.211309   -2.626335   -4.247560    1.485000
   120  Cl    c    -4.591618    8.195744    2.010661    1.485000
   121  Cl    c     4.620977   -4.984635   -6.800269    1.485000
   122  Cl    c     1.047928    3.732499   -8.805625    1.485000
   123  Cl    c    -1.030610    6.710309   -6.824189    1.485000
   124  Cl    c    -0.642331    4.232561    8.614863    1.485000
   125  Cl    c    -7.085836    4.730331    4.594384    1.485000
   126  Cl    c    -7.150422   -6.130898   -2.232540    1.485000
   127  Sc    c    -4.972828   -3.744250   -7.436712    3.000000
   128  Cl    c     2.133057   -8.458778   -4.222153    1.485000
   129  Cl    c    -4.263023    6.099584   -6.205926    1.485000
   130  Cl    c    -0.691949    0.992611   -9.623673    1.485000
   131  Cl    c     5.012198    3.355202   -7.583956    1.485000
   132  Sc    c    -9.678049    1.202387   -0.223385    3.000000
   133  Cl    c    -9.237869    2.313607    1.980034    1.485000
   134  Sc    c    -4.018813   -6.894944   -5.633026    3.000000
   135  Sc    c    -3.135546   -2.856630    8.820969    3.000000
   136  Sc    c     0.655472   -8.263307    5.209371    3.000000
   137  Cl    c    -3.600551   -2.157667   -8.813715    1.485000
   138  Cl    c     9.284319   -2.720820   -1.389141    1.485000
   139  Cl    c     3.627768    8.976668   -1.394247    1.485000
   140  Cl    c    -4.596511    4.618888    7.429957    1.485000
   141  Cl    c     4.649905   -8.609283   -1.412971    1.485000
   142  Cl    c    -3.876100    8.939080   -1.397349    1.485000
   143  Cl    c     3.867359   -2.146129   -8.794628    1.485000
   144  Cl    c    -7.470203   -3.609125    5.358463    1.485000
   145  Sc    c    -7.801924   -5.114926    3.378833    3.000000
   146  Cl    c    -7.474683    3.592746   -5.430394    1.485000
   147  Cl    c     7.503933   -3.586453    5.409237    1.485000
   148  Cl    c    -1.824950   -8.090766   -5.435207    1.485000
   149  Cl    c     1.847039    8.111178    5.416964    1.485000
   150  Cl    c     7.505600    3.624861   -5.390681    1.485000
   151  Sc    c     8.160671   -0.998748   -5.599879    3.000000
   152  Cl    c     0.405023    1.120514   10.000397    1.485000
   153  Cl    c     1.144584    9.114464   -4.192286    1.485000
   154  Cl    c     7.834027   -6.092128   -2.186076    1.485000
   155  Cl    c    -9.990017   -0.277832   -2.227349    1.485000
   156  Sc    c     4.367911   -2.834150    8.821647    3.000000
   157  Cl    c    -3.612051   -9.367178    1.976862    1.485000
   158  Cl    c    -5.305240   -1.627227    8.590622    1.485000
   159  Cl    c     0.345679   -9.713314    3.189281    1.485000
   160  Cl    c     3.623119    1.752260    9.410346    1.485000
   161  Cl    c    -1.044656   -4.110680    9.391700    1.485000
   162  Cl    c     6.057328   -6.959661    4.598659    1.485000
   163  Cl    c     7.897231    4.749201    4.610461    1.485000
   164  Cl    c    -3.872733    1.727824    9.371821    1.485000
   165  Cl    c     8.620510    5.528132    1.218294    1.485000
   166  Cl    c     1.049163   -7.109783    7.394939    1.485000
   167  Cl    c    -1.685826    7.744613    6.604771    1.485000
   168  Cl    c     3.857372   -9.336613    1.987680    1.485000
   169  Cl    c    -8.198763   -6.244145    1.172805    1.485000
   170  Cl    c    -6.099884   -5.625645   -6.227059    1.485000
   171  Cl    c     9.669342    2.007090    3.233339    1.485000
   172  Sc    c     7.210013    2.151241   -7.403365    3.000000
   173  Sc    c     1.549181   10.255089   -1.993547    3.000000
   174  Sc    c    -0.332199    9.344378    5.222369    3.000000
   175  Cl    c    -7.150697   -2.522012   -7.633497    1.485000
   176  Cl    c    -8.929599    0.234242   -6.226371    1.485000
   177  Cl    c    -5.369826   -8.475386   -4.235683    1.485000
   178  Sc    c     2.492734   -0.132033   10.625825    3.000000
   179  Cl    c     6.842225    7.854773    3.237816    1.485000
   180  Sc    c    -7.796561    2.118680   -7.439803    3.000000
   181  Cl    c    -7.122954    8.368173   -0.789221    1.485000
   182  Cl    c     2.144721   -4.890663   -9.653033    1.485000
   183  Cl    s    -1.930819   -0.317105   -1.552518   -2.485000
   184  Cl    s    -1.867506    2.075205    1.987414   -2.485000
   185  Cl    s     1.534876   -2.794468   -1.268166   -2.485000
   186  Cl    s    -1.496116    3.011796   -1.286275   -2.485000
   187  Cl    s     0.817595   -0.303616   -3.494592   -2.485000
   188  Cl    s    -3.609474   -0.113714    1.311557   -2.485000
   189  Cl    s    -1.232740   -3.519256   -0.957266   -2.485000
   190  Cl    s    -1.294035   -0.603066    4.014619   -2.485000
   191  Cl    s     0.863995   -3.694439    1.954432   -2.485000
   192  Cl    s     4.041834   -0.151608    1.248034   -2.485000
   193  Cl    s     3.433099    2.524330   -0.847965   -2.485000
   194  Cl    s     2.337452    2.004584    3.355822   -2.485000
   195  Cl    s    -4.354398    2.609279   -0.942281   -2.485000
   196  Cl    s    -0.718734   -2.592347   -4.417771   -2.485000
   197  Cl    s     5.160890   -0.237357   -2.036781   -2.485000
   198  Cl    s    -2.346830   -3.882966    3.352725   -2.485000
   199  Cl    s     3.436707   -1.073193    4.552069   -2.485000
   200  Cl    s     1.237274    5.685316    1.255299   -2.485000
   201  Cl    s    -4.086094   -1.126687    4.623965   -2.485000
   202  Cl    s    -0.600694   -6.113569    1.288003   -2.485000
   203  Cl    s     5.608891    2.187157    1.961120   -2.485000
   204  Cl    s    -3.463080    3.426830   -4.193511   -2.485000
   205  Cl    s    -1.256129    0.266041   -6.298890   -2.485000
   206  Cl    s    -0.169201   -3.647619    5.268090   -2.485000
   207  Cl    s     2.328579    5.605645   -2.035563   -2.485000
   208  Cl    s    -2.973735    2.231210    5.317337   -2.485000
   209  Cl    s     2.711742   -5.906460   -0.118095   -2.485000
   210  Cl    s    -5.096234    2.037089    3.346632   -2.485000
   211  Cl    s     0.565274   -6.065998   -2.065524   -2.485000
   212  Cl    s    -3.074062    5.773098   -0.172680   -2.485000
   213  Cl    s     2.572653   -2.308726   -5.568984   -2.485000
   214  Cl    s    -0.193461    3.557856   -5.544165   -2.485000
   215  Cl    s     0.609088    4.769414    4.548570   -2.485000
   216  Cl    s    -5.923617   -2.791567   -1.382288   -2.485000
   217  Cl    s     4.069501    3.442367   -4.143749   -2.485000
   218  Cl    s    -1.901424    5.770687   -3.481426   -2.485000
   219  Cl    s     1.551747    0.830935   -6.784364   -2.485000
   220  Cl    s     1.242876    2.074467    6.652006   -2.485000
   221  Cl    s     6.239568    3.090263   -1.349906   -2.485000
   222  Cl    s     6.267186   -3.307709   -0.841300   -2.485000
   223  Cl    s     5.166075   -3.836039    3.355164   -2.485000
   224  Cl    s     4.513029    2.249244    5.266607   -2.485000
   225  Cl    s     7.340152    0.002789   -0.134484   -2.485000
   226  Cl    s     4.505749    5.848475   -0.132908   -2.485000
   227  Cl    s    -6.531644   -0.111296   -3.465987   -2.485000
   228  Cl    s     6.240681   -0.525593    4.045140   -2.485000
   229  Cl    s     3.412623    5.326299    4.047359   -2.485000
   230  Cl    s    -4.812519   -5.865151   -0.184895   -2.485000
   231  Cl    s    -7.637912   -0.034457   -0.189056   -2.485000
   232  Cl    s    -4.819223   -2.263569   -5.568468   -2.485000
   233  Cl    s     1.554143   -6.397115    4.030430   -2.485000
   234  Cl    s    -1.903093   -1.451530    7.338879   -2.485000
   235  Cl    s    -6.552058   -3.699400    1.917891   -2.485000
   236  Cl    s    -4.067415    5.317860    4.027431   -2.485000
   237  Cl    s    -3.719818   -5.932512   -3.475032   -2.485000
   238  Cl    s     3.775152   -5.907569   -3.465817   -2.485000
   239  Cl    s    -5.235292    5.699208   -2.119854   -2.485000
   240  Cl    s     0.504593   -2.515490   -7.605599   -2.485000
   241  Cl    s    -3.428310   -3.841564    6.668777   -2.485000
   242  Cl    s    -1.248501   -6.963955    4.588602   -2.485000
   243  Cl    s     6.897033   -2.404343   -4.151461   -2.485000
   244  Cl    s     0.614282    8.391424   -0.839521   -2.485000
   245  Cl    s    -2.342593    3.361649   -7.489872   -2.485000
   246  Cl    s    -6.257056    5.658177    1.250482   -2.485000
   247  Cl    s     1.599323   -5.587568   -6.255966   -2.485000
   248  Cl    s    -0.484180    7.864329    3.358452   -2.485000
   249  Cl    s     4.066232   -3.777941    6.658205   -2.485000
   250  Cl    s     2.782077    8.041280    1.962513   -2.485000
   251  Cl    s     5.605992    5.802568   -3.439792   -2.485000
   252  Cl    s     6.274521    0.298532   -6.241825   -2.485000
   253  Cl    s    -3.087375   -5.024890   -6.766930   -2.485000
   254  Cl    s    -5.913788    0.814465   -6.774973   -2.485000
   255  Cl    s     2.777116    4.433173    7.365400   -2.485000
   256  Cl    s     8.430362   -0.045763   -3.441858   -2.485000
   257  Cl    s     2.342115   -1.599051    8.758718   -2.485000
   258  Cl    s     6.891993   -6.010666    1.252720   -2.485000
   259  Cl    s    -3.086264   -8.635740   -1.380817   -2.485000
   260  Cl    s    -6.221582    2.067187    6.626694   -2.485000
   261  Cl    s    -8.732146    3.045856   -1.380025   -2.485000
   262  Cl    s     1.616974   -9.152882   -0.862690   -2.485000
   263  Cl    s     5.598531   -1.416790    7.361354   -2.485000
   264  Cl    s    -8.729135   -3.358751   -0.875351   -2.485000
   265  Cl    s     8.430460   -3.655299    1.960492   -2.485000
   266  Cl    s     3.447453    6.143714   -6.236172   -2.485000
   267  Cl    s    -8.096594   -2.449389   -4.191397   -2.485000
   268  Cl    s    -4.712208    8.018367    1.954157   -2.485000
   269  Cl    s     4.406370   -5.028219   -6.765599   -2.485000
   270  Cl    s    -6.988568   -6.113170   -2.088142   -2.485000
   271  Cl    s    -6.871915    4.773350    4.557571   -2.485000
   272  Cl    s     2.251844   -8.280432   -4.166887   -2.485000
   273  Cl    s     9.072981   -2.760702   -1.351384   -2.485000
   274  Cl    s     0.929820    3.552025   -8.853407   -2.485000
   275  Cl    s    -1.242049    6.662720   -6.781460   -2.485000
   276  Cl    s    -5.915458   -6.402609    4.014678   -2.485000
   277  Cl    s    -8.734936   -0.556803    4.016340   -2.485000
   278  Cl    s    -4.049458    6.134219   -6.243432   -2.485000
   279  Cl    s    -0.579841    1.171412   -9.563150   -2.485000
   280  Cl    s     3.418591    8.933502   -1.353157   -2.485000
   281  Cl    s     5.172060    3.374002   -7.443270   -2.485000
   282  Cl    s     7.339614   -3.603117    5.266425   -2.485000
   283  Cl    s    -0.482547    4.248283    8.754264   -2.485000
   284  Cl    s    -4.709552    4.440287    7.365399   -2.485000
   285  Cl    s     4.434039   -8.641851   -1.378261   -2.485000
   286  Cl    s     1.686106    8.092319    5.271693   -2.485000
   287  Cl    s    -9.352320    2.141209    1.925646   -2.485000
   288  Cl    s     7.342725    3.610108   -5.533044   -2.485000
   289  Cl    s    -3.713198   -2.330343   -8.863802   -2.485000
   290  Cl    s    -4.086737    8.896785   -1.356619   -2.485000
   291  Cl    s     3.752595   -2.324754   -8.846767   -2.485000
   292  Cl    s    -7.631463   -3.628180    5.218251   -2.485000
   293  Cl    s    -9.824254   -0.264351   -2.085286   -2.485000
   294  Cl    s    -1.986248   -8.106656   -5.573841   -2.485000
   295  Cl    s     0.611899    1.163537    9.962382   -2.485000
   296  Cl    s    -7.632898    3.576512   -5.569581   -2.485000
   297  Cl    s    -8.083024   -6.065439    1.222580   -2.485000
   298  Cl    s     3.413592    1.713483    9.448801   -2.485000
   299  Cl    s     1.256065    9.287435   -4.139920   -2.485000
   300  Cl    s     7.992555   -6.073722   -2.044712   -2.485000
   301  Cl    s    -5.890173   -5.583610   -6.266804   -2.485000
   302  Cl    s    -5.143105   -1.612617    8.732259   -2.485000
   303  Cl    s     0.505626   -9.695567    3.333020   -2.485000
   304  Cl    s    -1.254495   -4.148738    9.429372   -2.485000
   305  Cl    s     0.936418   -7.285901    7.338694   -2.485000
   306  Cl    s     6.263413   -6.916523    4.559627   -2.485000
   307  Cl    s    -4.080477    1.690082    9.411185   -2.485000
   308  Cl    s    -3.723043   -9.539833    1.922801   -2.485000
   309  Cl    s     3.746637   -9.512439    1.933226   -2.485000
   310  Cl    s    -1.573869    7.918011    6.656171   -2.485000
   311  Cl    s     8.103224    4.790181    4.573635   -2.485000
   312  Cl    s     8.733515    5.700772    1.270415   -2.485000
   313  Cl    s    -6.987674   -2.503636   -7.488059   -2.485000
   314  Cl    s     9.828822    2.024305    3.372931   -2.485000
   315  Cl    s    -5.254157   -8.296747   -4.181527   -2.485000
   316  Cl    s    -8.717885    0.271307   -6.264447   -2.485000
   317  Cl    s    -6.906304    8.399351   -0.825914   -2.485000
   318  Cl    s     2.256317   -4.710097   -9.588188   -2.485000
   319  Cl    s     7.002629    7.871962    3.377171   -2.485000
--------------------------------------------------------------------------------


  Final derivatives for region 1 :

--------------------------------------------------------------------------------
   No.  Atomic          x             y             z            Radius
        Label       (eV/Angs)     (eV/Angs)     (eV/Angs)       (eV/Angs)
--------------------------------------------------------------------------------
     1  Sc    c       0.001172      0.000741      0.000803      0.000000
     2  Sc    c       0.000412     -0.000602      0.000855      0.000000
     3  Cl    c      -0.002792      0.000498     -0.001481      0.000000
     4  Cl    c      -0.000043     -0.000013     -0.000086      0.000000
     5  Cl    c       0.000222     -0.000136      0.000031      0.000000
     6  Cl    c      -0.000014      0.000079      0.000034      0.000000
     7  Cl    c      -0.000031     -0.000133      0.000088      0.000000
     8  Cl    c       0.000033      0.000037      0.000012      0.000000
     9  Cl    c      -0.000146      0.000587     -0.000180      0.000000
    10  Cl    c       0.000026     -0.000010     -0.000009      0.000000
    11  Cl    c      -0.000002      0.000001      0.000025      0.000000
    12  Cl    c       0.000052      0.000009     -0.000027      0.000000
    13  Cl    c       0.000023     -0.000035      0.000037      0.000000
    14  Cl    c       0.000027      0.000026      0.000057      0.000000
    15  Sc    c       0.000066      0.000166     -0.000007      0.000000
    16  Sc    c      -0.000072     -0.000133      0.000017      0.000000
    17  Cl    c      -0.000001      0.000224      0.000015      0.000000
    18  Cl    c      -0.000104     -0.000203     -0.000196      0.000000
    19  Sc    c       0.000033     -0.000003     -0.000016      0.000000
    20  Cl    c      -0.000004     -0.000001     -0.000004      0.000000
    21  Sc    c       0.000038      0.000004      0.000030      0.000000
    22  Cl    c      -0.000019     -0.000007     -0.000001      0.000000
    23  Sc    c       0.000120      0.000018      0.000104      0.000000
    24  Cl    c       0.000010     -0.000002      0.000018      0.000000
    25  Sc    c       0.000003     -0.000036     -0.000182      0.000000
    26  Cl    c      -0.000021      0.000033      0.000003      0.000000
    27  Sc    c       0.000012     -0.000004      0.000034      0.000000
    28  Sc    c      -0.000044     -0.000053      0.000015      0.000000
    29  Cl    c      -0.000023     -0.000022      0.000045      0.000000
    30  Cl    c      -0.000025      0.000000     -0.000024      0.000000
[...]
    238 y         -1.721124     -1.707864     0.013260    Cartesian   -0.77
    238 z          0.372877      0.365821    -0.007056    Cartesian   -1.89
    239 x          0.768087      0.677364    -0.090723    Cartesian  -11.81
    239 y          9.807285      9.898913     0.091628    Cartesian    0.93
    239 z          1.768476      1.711784    -0.056692    Cartesian   -3.21
    240 x          6.423710      6.417249    -0.006462    Cartesian   -0.10
    240 y          1.714424      1.684215    -0.030209    Cartesian   -1.76
    240 z         -3.637402     -3.773961    -0.136559    Cartesian    3.75
    241 x          2.494451      2.484346    -0.010105    Cartesian   -0.41
    241 y          0.399081      0.358141    -0.040940    Cartesian  -10.26
    241 z         10.475235     10.500415     0.025180    Cartesian    0.24
    242 x          4.687190      4.664154    -0.023036    Cartesian   -0.49
    242 y         -2.740838     -2.764250    -0.023413    Cartesian    0.85
    242 z          8.382959      8.420240     0.037281    Cartesian    0.44
    243 x         12.820321     12.809689    -0.010632    Cartesian   -0.08
    243 y          1.788064      1.795362     0.007298    Cartesian    0.41
    243 z         -0.316314     -0.319823    -0.003509    Cartesian    1.11
    244 x          6.531404      6.526937    -0.004467    Cartesian   -0.07
    244 y         12.593350     12.591129    -0.002221    Cartesian   -0.02
    244 z          2.998774      2.992117    -0.006657    Cartesian   -0.22
    245 x          3.597679      3.570063    -0.027616    Cartesian   -0.77
    245 y          7.566768      7.561355    -0.005413    Cartesian   -0.07
    245 z         -3.635916     -3.658234    -0.022318    Cartesian    0.61
    246 x         -0.328019     -0.344401    -0.016382    Cartesian    4.99
    246 y          9.863252      9.857882    -0.005369    Cartesian   -0.05
    246 z          5.073815      5.082120     0.008305    Cartesian    0.16
    247 x          7.520344      7.511979    -0.008365    Cartesian   -0.11
    247 y         -1.369528     -1.387863    -0.018335    Cartesian    1.34
    247 z         -2.424340     -2.424328     0.000012    Cartesian   -0.00
    248 x          5.431210      5.428475    -0.002735    Cartesian   -0.05
    248 y         12.065476     12.064034    -0.001441    Cartesian   -0.01
    248 z          7.188618      7.190090     0.001472    Cartesian    0.02
    249 x          9.987167      9.978887    -0.008280    Cartesian   -0.08
    249 y          0.416755      0.421764     0.005009    Cartesian    1.20
    249 z         10.490984     10.489843    -0.001141    Cartesian   -0.01
    250 x          8.697525      8.694733    -0.002792    Cartesian   -0.03
    250 y         12.241754     12.240985    -0.000769    Cartesian   -0.01
    250 z          5.795992      5.794151    -0.001840    Cartesian   -0.03
    251 x         11.527117     11.518648    -0.008469    Cartesian   -0.07
    251 y         10.001237     10.002273     0.001036    Cartesian    0.01
    251 z          0.391599      0.391846     0.000247    Cartesian    0.06
    252 x         12.187028     12.187177     0.000148    Cartesian    0.00
    252 y          4.500489      4.498237    -0.002252    Cartesian   -0.05
    252 z         -2.407104     -2.410187    -0.003083    Cartesian    0.13
    253 x          2.830573      2.825281    -0.005292    Cartesian   -0.19
    253 y         -0.839427     -0.825185     0.014242    Cartesian   -1.70
    253 z         -2.955028     -2.935292     0.019736    Cartesian   -0.67
    254 x          0.004541     -0.001133    -0.005674    Cartesian -124.94
    254 y          5.012917      5.014170     0.001252    Cartesian    0.02
    254 z         -2.953542     -2.943335     0.010207    Cartesian   -0.35
    255 x          8.693963      8.689771    -0.004192    Cartesian   -0.05
    255 y          8.629927      8.632879     0.002951    Cartesian    0.03
    255 z         11.198898     11.197038    -0.001860    Cartesian   -0.02
    256 x         14.353148     14.343017    -0.010131    Cartesian   -0.07
    256 y          4.148893      4.153942     0.005049    Cartesian    0.12
    256 z          0.390113      0.389780    -0.000333    Cartesian   -0.09
    257 x          8.253680      8.254771     0.001090    Cartesian    0.01
    257 y          2.601305      2.600654    -0.000651    Cartesian   -0.03
    257 z         12.590038     12.590355     0.000317    Cartesian    0.00
    258 x         12.816760     12.804648    -0.012112    Cartesian   -0.09
    258 y         -1.823762     -1.810960     0.012802    Cartesian   -0.70
    258 z          5.086592      5.084358    -0.002234    Cartesian   -0.04
    259 x          2.827012      2.826391    -0.000621    Cartesian   -0.02
    259 y         -4.451253     -4.436034     0.015219    Cartesian   -0.34
    259 z          2.447878      2.450821     0.002943    Cartesian    0.12
    260 x         -0.331580     -0.308926     0.022654    Cartesian   -6.83
    260 y          6.251425      6.266892     0.015467    Cartesian    0.25
    260 z         10.476721     10.458332    -0.018389    Cartesian   -0.18
    261 x         -2.825051     -2.819491     0.005560    Cartesian   -0.20
    261 y          7.253434      7.245561    -0.007874    Cartesian   -0.11
    261 z          2.450851      2.451613     0.000762    Cartesian    0.03
    262 x          7.516782      7.529629     0.012847    Cartesian    0.17
    262 y         -4.981355     -4.953177     0.028178    Cartesian   -0.57
    262 z          2.978566      2.968948    -0.009618    Cartesian   -0.32
    263 x         11.519995     11.511186    -0.008808    Cartesian   -0.08
    263 y          2.777583      2.782915     0.005331    Cartesian    0.19
    263 z         11.197412     11.192992    -0.004420    Cartesian   -0.04
    264 x         -2.801965     -2.816479    -0.014514    Cartesian    0.52
    264 y          0.853316      0.840954    -0.012362    Cartesian   -1.45
    264 z          2.964303      2.956286    -0.008016    Cartesian   -0.27
    265 x         14.349587     14.343116    -0.006471    Cartesian   -0.05
    265 y          0.537066      0.544406     0.007340    Cartesian    1.37
    265 z          5.793019      5.792130    -0.000889    Cartesian   -0.02
    266 x          9.360997      9.360108    -0.000888    Cartesian   -0.01
    266 y         10.352833     10.343419    -0.009414    Cartesian   -0.09
    266 z         -2.405618     -2.404534     0.001084    Cartesian   -0.05
    267 x         -2.165111     -2.183939    -0.018828    Cartesian    0.87
    267 y          1.752717      1.750316    -0.002401    Cartesian   -0.14
    267 z         -0.347813     -0.359759    -0.011945    Cartesian    3.43
    268 x          1.204809      1.200447    -0.004361    Cartesian   -0.36
    268 y         12.224080     12.218073    -0.006008    Cartesian   -0.05
    268 z          5.780242      5.785795     0.005553    Cartesian    0.10
    269 x         10.323289     10.319026    -0.004263    Cartesian   -0.04
    269 y         -0.821753     -0.828514    -0.006761    Cartesian    0.82
    269 z         -2.939278     -2.933961     0.005317    Cartesian   -0.18
    270 x         -1.072567     -1.075913    -0.003346    Cartesian    0.31
    270 y         -1.915076     -1.913465     0.001611    Cartesian   -0.08
    270 z          1.749754      1.743495    -0.006259    Cartesian   -0.36
    271 x         -0.964873     -0.959260     0.005613    Cartesian   -0.58
    271 y          8.963850      8.973055     0.009205    Cartesian    0.10
    271 z          8.385931      8.389209     0.003278    Cartesian    0.04
    272 x          8.153636      8.164499     0.010863    Cartesian    0.13
    272 y         -4.081953     -4.080727     0.001226    Cartesian   -0.03
    272 z         -0.333550     -0.335249    -0.001699    Cartesian    0.51
    273 x         14.986412     14.985637    -0.000776    Cartesian   -0.01
    273 y          1.436438      1.439003     0.002565    Cartesian    0.18
    273 z          2.480864      2.480254    -0.000610    Cartesian   -0.02
    274 x          6.863993      6.842475    -0.021518    Cartesian   -0.31
    274 y          7.743046      7.751730     0.008684    Cartesian    0.11
    274 z         -5.028543     -5.021769     0.006773    Cartesian   -0.13
    275 x          4.671226      4.670606    -0.000620    Cartesian   -0.01
    275 y         10.882934     10.862425    -0.020509    Cartesian   -0.19
    275 z         -2.936306     -2.949822    -0.013516    Cartesian    0.46
    276 x         -0.002581     -0.002802    -0.000221    Cartesian    8.58
    276 y         -2.210736     -2.202904     0.007832    Cartesian   -0.35
    276 z          7.852271      7.846316    -0.005954    Cartesian   -0.08
    277 x         -2.828612     -2.822281     0.006332    Cartesian   -0.22
    277 y          3.641608      3.642902     0.001294    Cartesian    0.04
    277 z          7.853757      7.847978    -0.005778    Cartesian   -0.07
    278 x          1.868281      1.863197    -0.005084    Cartesian   -0.27
    278 y         10.335159     10.333924    -0.001236    Cartesian   -0.01
    278 z         -2.421368     -2.411794     0.009574    Cartesian   -0.40
    279 x          5.331166      5.332815     0.001649    Cartesian    0.03
    279 y          5.382217      5.371117    -0.011100    Cartesian   -0.21
    279 z         -5.734970     -5.731512     0.003458    Cartesian   -0.06
    280 x          9.334350      9.331247    -0.003103    Cartesian   -0.03
    280 y         13.141125     13.133207    -0.007918    Cartesian   -0.06
    280 z          2.483836      2.478481    -0.005355    Cartesian   -0.22
    281 x         11.090395     11.084716    -0.005679    Cartesian   -0.05
    281 y          7.584441      7.573708    -0.010734    Cartesian   -0.14
    281 z         -3.620166     -3.611632     0.008534    Cartesian   -0.24
    282 x         13.253427     13.252269    -0.001157    Cartesian   -0.01
    282 y          0.592995      0.596588     0.003593    Cartesian    0.61
    282 z          9.098339      9.098063    -0.000277    Cartesian   -0.00
    283 x          5.427649      5.430108     0.002459    Cartesian    0.05
    283 y          8.453649      8.447988    -0.005661    Cartesian   -0.07
    283 z         12.591524     12.585902    -0.005622    Cartesian   -0.04
    284 x          1.201247      1.203104     0.001856    Cartesian    0.15
    284 y          8.612254      8.639992     0.027738    Cartesian    0.32
    284 z         11.183148     11.197037     0.013889    Cartesian    0.12
    285 x         10.319728     10.346695     0.026967    Cartesian    0.26
    285 y         -4.433580     -4.442146    -0.008567    Cartesian    0.19
    285 z          2.463628      2.453377    -0.010251    Cartesian   -0.42
    286 x          7.601364      7.598762    -0.002602    Cartesian   -0.03
    286 y         12.297682     12.292024    -0.005658    Cartesian   -0.05
    286 z          9.101311      9.103331     0.002020    Cartesian    0.02
    287 x         -3.461876     -3.439664     0.022212    Cartesian   -0.64
    287 y          6.354063      6.340914    -0.013149    Cartesian   -0.21
    287 z          5.763006      5.757284    -0.005722    Cartesian   -0.10
    288 x         13.260549     13.255381    -0.005168    Cartesian   -0.04
    288 y          7.816648      7.809813    -0.006835    Cartesian   -0.09
    288 z         -1.707473     -1.701407     0.006067    Cartesian   -0.36
    289 x          2.197309      2.199457     0.002148    Cartesian    0.10
    289 y          1.873029      1.869362    -0.003666    Cartesian   -0.20
    289 z         -5.045778     -5.032164     0.013615    Cartesian   -0.27
    290 x          1.841634      1.825919    -0.015715    Cartesian   -0.85
    290 y         13.123452     13.096490    -0.026962    Cartesian   -0.21
    290 z          2.468086      2.475019     0.006933    Cartesian    0.28
    291 x          9.690025      9.665250    -0.024775    Cartesian   -0.26
    291 y          1.890702      1.874952    -0.015751    Cartesian   -0.83
    291 z         -5.030029     -5.015129     0.014900    Cartesian   -0.30
    292 x         -1.732005     -1.718808     0.013197    Cartesian   -0.76
    292 y          0.557648      0.571525     0.013878    Cartesian    2.49
    292 z          9.066840      9.049888    -0.016951    Cartesian   -0.19
    293 x         -3.898598     -3.911599    -0.013001    Cartesian    0.33
    293 y          3.937268      3.935354    -0.001914    Cartesian   -0.05
    293 z          1.751240      1.746352    -0.004888    Cartesian   -0.28
    294 x          3.927180      3.926407    -0.000773    Cartesian   -0.02
    294 y         -3.923386     -3.906951     0.016435    Cartesian   -0.42
    294 z         -1.741945     -1.742203    -0.000259    Cartesian    0.01
    295 x          6.524282      6.524555     0.000272    Cartesian    0.00
    295 y          5.369697      5.363242    -0.006455    Cartesian   -0.12
    295 z         13.804587     13.794020    -0.010567    Cartesian   -0.08
    296 x         -1.724883     -1.720243     0.004640    Cartesian   -0.27
    296 y          7.781301      7.776217    -0.005084    Cartesian   -0.07
    296 z         -1.738973     -1.737943     0.001029    Cartesian   -0.06
    297 x         -2.168672     -2.170369    -0.001697    Cartesian    0.08
    297 y         -1.859109     -1.865734    -0.006625    Cartesian    0.36
    297 z          5.055093      5.054218    -0.000875    Cartesian   -0.02
    298 x          9.327227      9.326248    -0.000980    Cartesian   -0.01
    298 y          5.917472      5.913188    -0.004284    Cartesian   -0.07
    298 z         13.289648     13.280439    -0.009210    Cartesian   -0.07
    299 x          7.168258      7.168720     0.000462    Cartesian    0.01
    299 y         13.492752     13.487140    -0.005611    Cartesian   -0.04
    299 z         -0.313342     -0.308282     0.005059    Cartesian   -1.61
    300 x         13.912865     13.905211    -0.007654    Cartesian   -0.06
    300 y         -1.879729     -1.874017     0.005712    Cartesian   -0.30
    300 z          1.781254      1.786926     0.005673    Cartesian    0.32
    301 x          0.027628      0.022482    -0.005145    Cartesian  -18.62
    301 y         -1.387202     -1.383905     0.003297    Cartesian   -0.24
    301 z         -2.440090     -2.435166     0.004924    Cartesian   -0.20
    302 x          0.760964      0.769551     0.008586    Cartesian    1.13
    302 y          2.583632      2.587088     0.003456    Cartesian    0.13
    302 z         12.574288     12.563897    -0.010391    Cartesian   -0.08
    303 x          6.416588      6.418281     0.001693    Cartesian    0.03
    303 y         -5.509229     -5.495862     0.013367    Cartesian   -0.24
    303 z          7.168410      7.164658    -0.003752    Cartesian   -0.05
    304 x          4.660543      4.658160    -0.002382    Cartesian   -0.05
    304 y          0.047455      0.050967     0.003512    Cartesian    7.40
    304 z         13.272413     13.261010    -0.011402    Cartesian   -0.09
    305 x          6.853310      6.849073    -0.004237    Cartesian   -0.06
    305 y         -3.092434     -3.086196     0.006238    Cartesian   -0.20
    305 z         11.180176     11.170332    -0.009844    Cartesian   -0.09
    306 x         12.179906     12.176069    -0.003837    Cartesian   -0.03
    306 y         -2.723164     -2.716818     0.006346    Cartesian   -0.23
    306 z          8.398708      8.391265    -0.007443    Cartesian   -0.09
    307 x          1.834511      1.832178    -0.002333    Cartesian   -0.13
    307 y          5.899798      5.889787    -0.010011    Cartesian   -0.17
    307 z         13.273899     13.242823    -0.031076    Cartesian   -0.23
    308 x          2.190187      2.189613    -0.000574    Cartesian   -0.03
    308 y         -5.350625     -5.340128     0.010496    Cartesian   -0.20
    308 z          5.760034      5.754439    -0.005595    Cartesian   -0.10
    309 x          9.682902      9.659292    -0.023610    Cartesian   -0.24
    309 y         -5.332951     -5.312734     0.020217    Cartesian   -0.38
    309 z          5.775784      5.764864    -0.010920    Cartesian   -0.19
    310 x          4.335105      4.338786     0.003682    Cartesian    0.08
    310 y         12.121442     12.117717    -0.003726    Cartesian   -0.03
    310 z         10.493957     10.487809    -0.006148    Cartesian   -0.06
    311 x         14.020559     14.015879    -0.004680    Cartesian   -0.03
    311 y          8.999197      8.989886    -0.009311    Cartesian   -0.10
    311 z          8.417430      8.405273    -0.012158    Cartesian   -0.14
    312 x         14.657413     14.646171    -0.011242    Cartesian   -0.08
    312 y          9.898599      9.900477     0.001879    Cartesian    0.02
    312 z          5.105314      5.102053    -0.003261    Cartesian   -0.06
    313 x         -1.069006     -1.075018    -0.006013    Cartesian    0.56
    313 y          1.696751      1.696069    -0.000681    Cartesian   -0.04
    313 z         -3.653152     -3.656421    -0.003269    Cartesian    0.09
    314 x         15.749957     15.741477    -0.008480    Cartesian   -0.05
    314 y          6.230805      6.224010    -0.006795    Cartesian   -0.11
    314 z          7.202882      7.204569     0.001687    Cartesian    0.02
    315 x          0.660920      0.658498    -0.002422    Cartesian   -0.37
    315 y         -4.099627     -4.097042     0.002584    Cartesian   -0.06
    315 z         -0.349300     -0.349889    -0.000590    Cartesian    0.17
    316 x         -2.798404     -2.805229    -0.006825    Cartesian    0.24
    316 y          4.465142      4.471012     0.005870    Cartesian    0.13
    316 z         -2.438604     -2.432809     0.005795    Cartesian   -0.24
    317 x         -0.961312     -0.993649    -0.032337    Cartesian    3.36
    317 y         12.575677     12.599056     0.023380    Cartesian    0.19
    317 z          2.983025      3.005724     0.022699    Cartesian    0.76
    318 x          8.157197      8.168973     0.011775    Cartesian    0.14
    318 y         -0.470126     -0.510392    -0.040266    Cartesian    8.56
    318 z         -5.736456     -5.756550    -0.020094    Cartesian    0.35
    319 x         12.923926     12.915284    -0.008642    Cartesian   -0.07
    319 y         12.083149     12.071667    -0.011482    Cartesian   -0.10
    319 z          7.204368      7.208809     0.004441    Cartesian    0.06
--------------------------------------------------------------------------------


  Time to end of optimisation  =       75.0882 seconds


  Peak dynamic memory used =      18.41 MB 


  Timing analysis for GULP :

--------------------------------------------------------------------------------
  Task / Subroutine                                          Time (Seconds)
--------------------------------------------------------------------------------
  Calculation of reciprocal space energy and derivatives          0.0118
  Calculation of real space energy and derivatives                0.3566
  Calculation for region 1 energy and derivatives (2-b)          16.5180
  Calculation for region 2a energy                               55.9411
  Calculation for region 2b energy                                0.0253
  Calculation and manipulation of Hessian matrix                  0.0047
  Calculation of matrix inversion                                 2.0463
--------------------------------------------------------------------------------
  Total CPU time                                                 75.0884
--------------------------------------------------------------------------------


  Dump file written as ScCl3.grs



  **** GULP has completed with   2 warnings - beware! ****

  Job Finished at 18:45.01  7th February   2022                               

