********************************************************************************
*                       GENERAL UTILITY LATTICE PROGRAM                        *
*                                 Julian Gale                                  *
*                       Curtin Institute for Computation                       *
*                    School of Molecular and Life Sciences                     *
*                    Curtin University, Western Australia                      *
********************************************************************************
* Version = 5.2.0 * Last modified =   1st June 2020                            *
********************************************************************************
*  optimise     - perform optimisation run                                     *
*  conp         - constant pressure calculation                                *
*  property     - calculate properties for final geometry                      *
*  defect       - perform defect calculation after bulk run                    *
*  compare      - compare initial and final structures                         *
********************************************************************************

  Job Started  at 18:43.41  7th February   2022                               

  Number of CPUs =     1


  Total number of configurations input =      1

********************************************************************************
*  Input for Configuration =   1                                               *
********************************************************************************

  Formula = Sc2Cl6                                                      

  Number of irreducible atoms/shells =      14


  Total number atoms/shells =      14

  Dimensionality = 3               :  Bulk   



  Cartesian lattice vectors (Angstroms) :

        7.453000    0.000000    0.000000
        4.624520    5.844744    0.000000
        4.624520    2.237970    5.399307

  Cell parameters (Angstroms/Degrees):

  a =       7.4530    alpha =  51.6480
  b =       7.4530    beta  =  51.6480
  c =       7.4530    gamma =  51.6480

  Initial cell volume =         235.198534 Angs**3

  Temperature of configuration =   0.00     K 

  Pressure of configuration =         0.000 GPa 

  Fractional coordinates of asymmetric unit :

--------------------------------------------------------------------------------
   No.  Atomic       x           y          z         Charge      Occupancy
        Label      (Frac)      (Frac)     (Frac)        (e)         (Frac)  
--------------------------------------------------------------------------------
      1 Sc    c    0.333900    0.333900    0.333900     3.00000    1.000000    
      2 Sc    c    0.666100 *  0.666100 *  0.666100 *   3.00000    1.000000    
      3 Cl    c    0.073700 *  0.443900 *  0.705300 *   1.48500    1.000000    
      4 Cl    c    0.294700 *  0.926300 *  0.556100 *   1.48500    1.000000    
      5 Cl    c    0.443900 *  0.705300 *  0.073700 *   1.48500    1.000000    
      6 Cl    c    0.556100 *  0.294700 *  0.926300 *   1.48500    1.000000    
      7 Cl    c    0.705300 *  0.073700 *  0.443900 *   1.48500    1.000000    
      8 Cl    c    0.926300 *  0.556100 *  0.294700 *   1.48500    1.000000    
      9 Cl    s    0.073700 *  0.443900 *  0.705300 *  -2.48500    1.000000    
     10 Cl    s    0.294700 *  0.926300 *  0.556100 *  -2.48500    1.000000    
     11 Cl    s    0.443900 *  0.705300 *  0.073700 *  -2.48500    1.000000    
     12 Cl    s    0.556100 *  0.294700 *  0.926300 *  -2.48500    1.000000    
     13 Cl    s    0.705300 *  0.073700 *  0.443900 *  -2.48500    1.000000    
     14 Cl    s    0.926300 *  0.556100 *  0.294700 *  -2.48500    1.000000    
--------------------------------------------------------------------------------



********************************************************************************
*  General input information                                                   *
********************************************************************************

  Species output for all configurations : 

--------------------------------------------------------------------------------
  Species    Type    Atomic    Atomic    Charge       Radii (Angs)     Library
                     Number     Mass       (e)     Cova   Ionic  VDW   Symbol
--------------------------------------------------------------------------------
    Sc       Core       21      44.96   3.000000   1.440  0.000  2.150          
    Cl       Core       17      35.45   1.485000   0.990  0.000  1.650          
    Cl       Shell      17       0.00  -2.485000   0.990  0.000  1.650          
--------------------------------------------------------------------------------


  Lattice summation method               =    Ewald          (3-D)
                                         =    Parry          (2-D)
                                         =    Saunders et al (1-D)
  Accuracy factor for lattice sums       =   12.000


  Analytic derivatives to be used

  Time limit = Infinity

  Maximum range for interatomic potentials =    100000.000000 Angstroms

  General interatomic potentials :

--------------------------------------------------------------------------------
Atom  Types   Potential      Parameter       Value         Units   Cutoffs(Ang)
  1     2                                                            Min /  Max 
--------------------------------------------------------------------------------
Cl   c Cl   s Spring (c-s)  Spring k 2       36.070000    eV*Ang^-2 0.000  0.800
                            Spring k 4       0.0000000    eV*Ang^-4 
--------------------------------------------------------------------------------
Sc   c Cl   s Buckingham    Buckingham A     2456.2200    eV        0.000 12.000
                            Buckingham rho  0.31470000    Ang       
                            Buckingham C     0.0000000    eV*Ang^6  
--------------------------------------------------------------------------------
Cl   s Cl   s Buckingham    Buckingham A     1227.2000    eV        0.000 12.000
                            Buckingham rho  0.32100000    Ang       
                            Buckingham C     14.530000    eV*Ang^6  
--------------------------------------------------------------------------------

********************************************************************************
*  Output for configuration   1                                                *
********************************************************************************


  Components of energy : 

--------------------------------------------------------------------------------
  Interatomic potentials     =          10.39244711 eV    
  Monopole - monopole (real) =         -30.86300284 eV    
  Monopole - monopole (recip)=         -65.52201623 eV    
  Monopole - monopole (total)=         -96.38501907 eV    
--------------------------------------------------------------------------------
  Total lattice energy       =         -85.99257196 eV    
--------------------------------------------------------------------------------
  Total lattice energy       =           -8296.9687 kJ/(mole unit cells)
--------------------------------------------------------------------------------


  Number of variables =       45

  Maximum number of calculations  =          1000
  Maximum Hessian update interval =            10
  Maximum step size               =   1.000000000
  Maximum parameter tolerance     =   0.000010000
  Maximum function  tolerance     =   0.000010000
  Maximum gradient  tolerance     =   0.001000000
  Maximum gradient  component     =   0.010000000

  Symmetry not applied to optimisation

  Cell parameters to be optimised using strains

  Newton-Raphson optimiser to be used

  BFGS hessian update to be used

  Lower half triangular hessian to be used

  Start of bulk optimisation :

  Cycle:      0 Energy:       -85.992572  Gnorm:      8.922860  CPU:    0.010
  ** Hessian calculated **
  Cycle:      1 Energy:       -91.630693  Gnorm:      3.248521  CPU:    0.022
  ** Hessian calculated **
  Cycle:      2 Energy:       -93.407926  Gnorm:      0.241259  CPU:    0.037
  Cycle:      3 Energy:       -93.727483  Gnorm:      0.379189  CPU:    0.049
  Cycle:      4 Energy:       -93.872131  Gnorm:      0.419846  CPU:    0.060
  Cycle:      5 Energy:       -93.916106  Gnorm:      0.216759  CPU:    0.079
  Cycle:      6 Energy:       -93.955402  Gnorm:      0.236635  CPU:    0.092
  Cycle:      7 Energy:       -94.003608  Gnorm:      0.337075  CPU:    0.106
  Cycle:      8 Energy:       -94.063864  Gnorm:      0.300404  CPU:    0.119
  Cycle:      9 Energy:       -94.105073  Gnorm:      0.327302  CPU:    0.129
  Cycle:     10 Energy:       -94.152801  Gnorm:      0.172167  CPU:    0.143
  Cycle:     11 Energy:       -94.162078  Gnorm:      0.129678  CPU:    0.154
  ** Hessian calculated **
  Cycle:     12 Energy:       -94.184232  Gnorm:      0.042568  CPU:    0.173
  Cycle:     13 Energy:       -94.185870  Gnorm:      0.019064  CPU:    0.184
  Cycle:     14 Energy:       -94.186129  Gnorm:      0.004834  CPU:    0.196
  Cycle:     15 Energy:       -94.186171  Gnorm:      0.003759  CPU:    0.208


  **** Optimisation achieved ****


  Final energy =     -94.18617309 eV
  Final Gnorm  =       0.00026742

  Components of energy : 

--------------------------------------------------------------------------------
  Interatomic potentials     =          21.32396821 eV    
  Monopole - monopole (real) =          81.06426209 eV    
  Monopole - monopole (recip)=        -196.57440339 eV    
  Monopole - monopole (total)=        -115.51014130 eV    
--------------------------------------------------------------------------------
  Total lattice energy       =         -94.18617309 eV    
--------------------------------------------------------------------------------
  Total lattice energy       =           -9087.5259 kJ/(mole unit cells)
--------------------------------------------------------------------------------

  Final fractional coordinates of atoms :

--------------------------------------------------------------------------------
   No.  Atomic        x           y          z          Radius
        Label       (Frac)      (Frac)     (Frac)       (Angs) 
--------------------------------------------------------------------------------
     1  Sc    c     0.333900    0.333900    0.333900    0.000000
     2  Sc    c     0.667797    0.667813    0.667799    0.000000
     3  Cl    c     0.075682    0.445383    0.703391    0.000000
     4  Cl    c     0.297892    0.926501    0.556250    0.000000
     5  Cl    c     0.445899    0.703300    0.075286    0.000000
     6  Cl    c     0.555797    0.298410    0.926421    0.000000
     7  Cl    c     0.703804    0.075207    0.445450    0.000000
     8  Cl    c     0.926009    0.556319    0.298315    0.000000
     9  Cl    s     0.065947    0.452571    0.677260    0.000000
    10  Cl    s     0.324076    0.936176    0.549072    0.000000
    11  Cl    s     0.453018    0.677183    0.065599    0.000000
    12  Cl    s     0.548677    0.324526    0.936109    0.000000
    13  Cl    s     0.677621    0.065531    0.452629    0.000000
    14  Cl    s     0.935746    0.549133    0.324445    0.000000
--------------------------------------------------------------------------------

  Final Cartesian lattice vectors (Angstroms) :

        7.492716    0.017674    0.015750
        4.666685    5.870017    0.017236
        4.663123    2.258191    5.420142


  Final cell parameters and derivatives :

--------------------------------------------------------------------------------
       a            7.492753 Angstrom     dE/de1(xx)     0.001502 eV/strain
       b            7.499023 Angstrom     dE/de2(yy)     0.001130 eV/strain
       c            7.498139 Angstrom     dE/de3(zz)     0.001402 eV/strain
       alpha       51.360329 Degrees      dE/de4(yz)     0.000184 eV/strain
       beta        51.381576 Degrees      dE/de5(xz)     0.000594 eV/strain
       gamma       51.379896 Degrees      dE/de6(xy)     0.000958 eV/strain
--------------------------------------------------------------------------------

  Primitive cell volume =           237.388320 Angs**3

  Density of cell =      2.116870 g/cm**3

  Non-primitive cell volume =           237.388320 Angs**3


  Final internal derivatives :

--------------------------------------------------------------------------------
   No.  Atomic          a             b             c           Radius
        Label          (eV)          (eV)          (eV)        (eV/Angs)
--------------------------------------------------------------------------------
      1 Sc    c       0.000000      0.000000      0.000000      0.000000
      2 Sc    c       0.001681      0.001454      0.000124      0.000000
      3 Cl    c      -0.002719     -0.000640     -0.000937      0.000000
      4 Cl    c       0.000986      0.001285      0.000118      0.000000
      5 Cl    c       0.001446      0.000724      0.001502      0.000000
      6 Cl    c      -0.000978      0.000527     -0.000482      0.000000
      7 Cl    c      -0.001726     -0.001514     -0.000663      0.000000
      8 Cl    c       0.000842     -0.000977      0.000232      0.000000
      9 Cl    s       0.003561      0.001253      0.002922      0.000000
     10 Cl    s      -0.002865     -0.003016     -0.001029      0.000000
     11 Cl    s       0.001191      0.003381      0.002375      0.000000
     12 Cl    s      -0.001348     -0.004134     -0.001709      0.000000
     13 Cl    s       0.002463      0.001978      0.000726      0.000000
     14 Cl    s      -0.002693     -0.000158     -0.002951      0.000000
--------------------------------------------------------------------------------
  Maximum abs         0.003561      0.004134      0.002951      0.000000
--------------------------------------------------------------------------------

  Comparison of initial and final structures : 

--------------------------------------------------------------------------------
  Parameter   Initial value   Final value   Difference    Units      Percent
--------------------------------------------------------------------------------
    Volume       235.198534    237.388320     2.189785    Angs**3      0.93
    a              7.453000      7.492753     0.039753    Angstroms    0.53
    b              7.453000      7.499023     0.046023    Angstroms    0.62
    c              7.453000      7.498139     0.045139    Angstroms    0.61
    alpha         51.648000     51.360329    -0.287671    Degrees     -0.56
    beta          51.648000     51.381576    -0.266424    Degrees     -0.52
    gamma         51.648000     51.379896    -0.268104    Degrees     -0.52
      1 x          0.333900      0.333900     0.000000    Fractional   0.00
      1 y          0.333900      0.333900     0.000000    Fractional   0.00
      1 z          0.333900      0.333900     0.000000    Fractional   0.00
      2 x          0.666100      0.667797     0.001697    Fractional   0.25
      2 y          0.666100      0.667813     0.001713    Fractional   0.26
      2 z          0.666100      0.667799     0.001699    Fractional   0.25
      3 x          0.073700      0.075682     0.001982    Fractional   2.69
      3 y          0.443900      0.445383     0.001483    Fractional   0.33
      3 z          0.705300      0.703391     0.001909    Fractional   0.27
      4 x          0.294700      0.297892     0.003192    Fractional   1.08
      4 y          0.926300      0.926501     0.000201    Fractional   0.02
      4 z          0.556100      0.556250     0.000150    Fractional   0.03
      5 x          0.443900      0.445899     0.001999    Fractional   0.45
      5 y          0.705300      0.703300     0.002000    Fractional   0.28
      5 z          0.073700      0.075286     0.001586    Fractional   2.15
      6 x          0.556100      0.555797     0.000303    Fractional   0.05
      6 y          0.294700      0.298410     0.003710    Fractional   1.26
      6 z          0.926300      0.926421     0.000121    Fractional   0.01
      7 x          0.705300      0.703804     0.001496    Fractional   0.21
      7 y          0.073700      0.075207     0.001507    Fractional   2.04
      7 z          0.443900      0.445450     0.001550    Fractional   0.35
      8 x          0.926300      0.926009     0.000291    Fractional   0.03
      8 y          0.556100      0.556319     0.000219    Fractional   0.04
      8 z          0.294700      0.298315     0.003615    Fractional   1.23
      9 x          0.073700      0.065947     0.007753    Fractional  10.52
      9 y          0.443900      0.452571     0.008671    Fractional   1.95
      9 z          0.705300      0.677260     0.028040    Fractional   3.98
     10 x          0.294700      0.324076     0.029376    Fractional   9.97
     10 y          0.926300      0.936176     0.009876    Fractional   1.07
     10 z          0.556100      0.549072     0.007028    Fractional   1.26
     11 x          0.443900      0.453018     0.009118    Fractional   2.05
     11 y          0.705300      0.677183     0.028117    Fractional   3.99
     11 z          0.073700      0.065599     0.008101    Fractional  10.99
     12 x          0.556100      0.548677     0.007423    Fractional   1.33
     12 y          0.294700      0.324526     0.029826    Fractional  10.12
     12 z          0.926300      0.936109     0.009809    Fractional   1.06
     13 x          0.705300      0.677621     0.027679    Fractional   3.92
     13 y          0.073700      0.065531     0.008169    Fractional  11.08
     13 z          0.443900      0.452629     0.008729    Fractional   1.97
     14 x          0.926300      0.935746     0.009446    Fractional   1.02
     14 y          0.556100      0.549133     0.006967    Fractional   1.25
     14 z          0.294700      0.324445     0.029745    Fractional  10.09
--------------------------------------------------------------------------------


  Born effective charge tensors : 

-------------------------------------------------------------------------------
  Atom             x           y             z
-------------------------------------------------------------------------------
    1 Sc    x       2.2285     -0.2571     -0.1710
            y      -0.2560      2.6360     -0.0847
            z      -0.1727     -0.0813      2.7043
-------------------------------------------------------------------------------
    2 Sc    x       2.2285     -0.2571     -0.1710
            y      -0.2560      2.6360     -0.0846
            z      -0.1727     -0.0813      2.7044
-------------------------------------------------------------------------------
    3 Cl    x      -0.8062      0.2256      0.0411
            y       0.2160     -0.8834     -0.1927
            z       0.0553     -0.1841     -0.8334
-------------------------------------------------------------------------------
    4 Cl    x      -0.7835      0.1157      0.0049
            y       0.1062     -0.9970      0.2420
            z      -0.0106      0.2360     -0.7424
-------------------------------------------------------------------------------
    5 Cl    x      -0.6388     -0.0842      0.1250
            y      -0.0662     -0.7556      0.0353
            z       0.1280      0.0294     -1.1285
-------------------------------------------------------------------------------
    6 Cl    x      -0.6388     -0.0842      0.1250
            y      -0.0662     -0.7556      0.0353
            z       0.1280      0.0294     -1.1285
-------------------------------------------------------------------------------
    7 Cl    x      -0.7835      0.1157      0.0049
            y       0.1062     -0.9970      0.2420
            z      -0.0106      0.2360     -0.7424
-------------------------------------------------------------------------------
    8 Cl    x      -0.8062      0.2256      0.0411
            y       0.2160     -0.8834     -0.1927
            z       0.0553     -0.1841     -0.8334
-------------------------------------------------------------------------------




  Elastic Constant Matrix: (Units=GPa)

-------------------------------------------------------------------------------
  Indices      1         2         3         4         5         6    
-------------------------------------------------------------------------------
       1      3.6214    8.6385    8.0518    0.5781   -2.6064   -3.9922
       2      8.6385   31.8741   23.2528   -4.4482   -5.2569  -13.8933
       3      8.0518   23.2528   39.7403   -4.9820  -10.4619   -9.4746
       4      0.5781   -4.4482   -4.9820    7.0058   -1.6207    0.0048
       5     -2.6064   -5.2569  -10.4619   -1.6207    4.2787    3.1180
       6     -3.9922  -13.8933   -9.4746    0.0048    3.1180    6.9568
-------------------------------------------------------------------------------


  Elastic Compliance Matrix: (Units=1/GPa)

-------------------------------------------------------------------------------
  Indices      1         2         3         4         5         6    
-------------------------------------------------------------------------------
       1    4.139658 -2.323081 -1.150848 -3.167637 -2.310781 -2.793293
       2   -2.323081  2.746677 -0.244172  1.461210 -1.287173  4.395552
       3   -1.150848 -0.244172  1.480853  1.927327  4.035931 -0.941456
       4   -3.167637  1.461210  1.927327  3.842313  4.931639  1.512259
       5   -2.310781 -1.287173  4.035931  4.931639 11.609238 -3.606608
       6   -2.793293  4.395552 -0.941456  1.512259 -3.606608  7.652260
-------------------------------------------------------------------------------

  Mechanical properties :

-------------------------------------------------------------------------------
  Convention :                    Reuss         Voigt         Hill
-------------------------------------------------------------------------------
  Bulk  Modulus (GPa)     =       1.07413      17.23576       9.15495
  Shear Modulus (GPa)     =       0.12749       6.00110       3.06430
-------------------------------------------------------------------------------
  Velocity S-wave (km/s)  =       0.24541       1.68371       1.20315
  Velocity P-wave (km/s)  =       0.76663       3.45282       2.50097
-------------------------------------------------------------------------------
  Compressibility (1/GPa) =    0.93098656
-------------------------------------------------------------------------------
  Stress axis :                     x             y             z
-------------------------------------------------------------------------------
  Youngs Moduli (GPa)     =       0.24157       0.36408       0.67529
-------------------------------------------------------------------------------
  Poissons Ratio (x)      =                     0.84578       0.77715
  Poissons Ratio (y)      =       0.56118                     0.16489
  Poissons Ratio (z)      =       0.27801       0.08890
-------------------------------------------------------------------------------


  Piezoelectric Strain Matrix: (Units=C/m**2)

-------------------------------------------------------------------------------
  Indices      1         2         3         4         5         6    
-------------------------------------------------------------------------------
       x    -0.00008   0.00014   0.00001  -0.00009   0.00009  -0.00005
       y    -0.00004  -0.00012   0.00007   0.00004  -0.00006  -0.00002
       z    -0.00006  -0.00018  -0.00004  -0.00005   0.00002   0.00008
-------------------------------------------------------------------------------


  Piezoelectric Stress Matrix: (Units=10**-11 C/N)

-------------------------------------------------------------------------------
  Indices      1         2         3         4         5         6    
-------------------------------------------------------------------------------
       x    -0.04806   0.01066   0.03304   0.05336   0.08812  -0.00159
       y     0.01097  -0.01943   0.00109  -0.01104   0.00386  -0.03303
       z     0.00895  -0.00670  -0.00499  -0.01237  -0.01368  -0.00769
-------------------------------------------------------------------------------


  Static dielectric constant tensor : 

-------------------------------------------------------------------------------
              x         y         z
-------------------------------------------------------------------------------
       x     2.55749  -0.36997  -0.24788
       y    -0.36997   3.14505  -0.11962
       z    -0.24788  -0.11962   3.24356
--------------------------------------------------------------------------------

  High frequency dielectric constant tensor : 

-------------------------------------------------------------------------------
              x         y         z
-------------------------------------------------------------------------------
       x     1.82639  -0.04056  -0.02716
       y    -0.04056   1.89075  -0.01312
       z    -0.02716  -0.01312   1.90154
-------------------------------------------------------------------------------

  Static refractive indices : 

-------------------------------------------------------------------------------
    1 =    1.51614      2 =    1.82309      3 =    1.82312
-------------------------------------------------------------------------------

  High frequency refractive indices : 

-------------------------------------------------------------------------------
    1 =    1.34090      2 =    1.38214      3 =    1.38215
-------------------------------------------------------------------------------


  Time to end of optimisation =       0.2291 seconds

********************************************************************************
*  Defect calculation for configuration   1 :                                  *
********************************************************************************



!!!!!!!!!!!!!!!!!!!!!!!!!!!!!!!!!!!!!!!!!!!!!!!!!!!!!!!!!!!!!!!!!!!!!!!!!!!!!!!!
!! WARNING : Ambiguous vacancy specifier used
!!!!!!!!!!!!!!!!!!!!!!!!!!!!!!!!!!!!!!!!!!!!!!!!!!!!!!!!!!!!!!!!!!!!!!!!!!!!!!!!



!!!!!!!!!!!!!!!!!!!!!!!!!!!!!!!!!!!!!!!!!!!!!!!!!!!!!!!!!!!!!!!!!!!!!!!!!!!!!!!!
!! WARNING : Ambiguous vacancy specifier used
!!!!!!!!!!!!!!!!!!!!!!!!!!!!!!!!!!!!!!!!!!!!!!!!!!!!!!!!!!!!!!!!!!!!!!!!!!!!!!!!

  Total number of defects =      2

  Total charge on defect  =   1.00

  Defect centre is at   0.0737   0.4439   0.7053  Frac

  Region 1 radius =  12.0000      Number of ions =    434

  Region 2 radius =  24.0000      Number of ions =   3003

  Region 2a mode = 4 : screened electrostatics due to region 1 
                       neglect correction to region 1 forces from 2a
                       region 2a displacements based on defects only

  Region 2a ions will only interact with defects in region 1

  Vacancies:

--------------------------------------------------------------------------------
    Specification type     Symbol/Number         x          y          z
--------------------------------------------------------------------------------
    Atom                    Cl    core
    Atom                    Cl    shel
--------------------------------------------------------------------------------


  Components of defect energy : 

--------------------------------------------------------------------------------
  Region 1 - region 1                   =      0.40680406 eV
  Region 1 - region 2a (unrelaxed)      =      9.12767040 eV
  Region 1 - 2a (relaxed - correction)  =     -0.39075119 eV
  Region 1 (Total)                      =      9.14372328 eV
  Region 2a                             =      0.19540016 eV
  Region 2b                             =     -0.19638630 eV
--------------------------------------------------------------------------------
  Total defect energy                   =      9.14273713 eV
--------------------------------------------------------------------------------

  Largest displacement in region 2 =   0.0142 Angstroms


  Number of variables =     1302

  Maximum number of calculations  =        1000
  Maximum Hessian update interval =          10
  Maximum step size               =   1.0000000
  Maximum parameter tolerance     =   0.0000100
  Maximum function  tolerance     =   0.0000100
  Maximum gradient  tolerance     =   0.0010000

  Symmetry adapted optimisation

  Newton-Raphson optimiser to be used

  BFGS hessian update to be used

  Lower half triangular hessian to be used

  Start of defect optimisation :

  Cycle:      0 Defect Energy:   9.142737  Gnorm:     0.012734  CPU:    4.653
  ** Hessian calculated **
  Cycle:      1 Defect Energy:   8.229581  Gnorm:     0.010618  CPU:   24.834
  Cycle:      2 Defect Energy:   7.087123  Gnorm:     0.007140  CPU:   38.955
  Cycle:      3 Defect Energy:   6.091665  Gnorm:     0.001758  CPU:   53.398
  Cycle:      4 Defect Energy:   6.016688  Gnorm:     0.001193  CPU:   56.088
  Cycle:      5 Defect Energy:   5.978729  Gnorm:     0.000924  CPU:   58.461
  Cycle:      6 Defect Energy:   5.921577  Gnorm:     0.000501  CPU:   60.957
  Cycle:      7 Defect Energy:   5.899049  Gnorm:     0.000354  CPU:   63.203
  Cycle:      8 Defect Energy:   5.885865  Gnorm:     0.000283  CPU:   65.672
  Cycle:      9 Defect Energy:   5.883333  Gnorm:     0.000328  CPU:   68.100
  ** Hessian calculated **
  Cycle:     10 Defect Energy:   5.873036  Gnorm:     0.000227  CPU:   74.443
  Cycle:     11 Defect Energy:   5.867632  Gnorm:     0.000157  CPU:   76.334
  Cycle:     12 Defect Energy:   5.864605  Gnorm:     0.000110  CPU:   82.262
  Cycle:     13 Defect Energy:   5.862903  Gnorm:     0.000077  CPU:   84.706
  Cycle:     14 Defect Energy:   5.861947  Gnorm:     0.000054  CPU:   87.244
  Cycle:     15 Defect Energy:   5.861422  Gnorm:     0.000038  CPU:   89.602
  Cycle:     16 Defect Energy:   5.861138  Gnorm:     0.000027  CPU:   92.123
  Cycle:     17 Defect Energy:   5.860988  Gnorm:     0.000019  CPU:   94.431
  Cycle:     18 Defect Energy:   5.860930  Gnorm:     0.000014  CPU:   96.798
  Cycle:     19 Defect Energy:   5.860892  Gnorm:     0.000010  CPU:   99.076
  ** Hessian calculated **
  Cycle:     20 Defect Energy:   5.860873  Gnorm:     0.000007  CPU:  105.422


  **** Optimisation achieved ****


  Final defect energy  =        5.86086430
  Final defect Gnorm   =        0.00000472

  Components of defect energy : 

--------------------------------------------------------------------------------
  Region 1 - region 1                   =     -1.43718602 eV
  Region 1 - region 2a (unrelaxed)      =      7.67038901 eV
  Region 1 - 2a (relaxed - correction)  =     -0.35150051 eV
  Region 1 (Total)                      =      5.88170247 eV
  Region 2a                             =      0.17574595 eV
  Region 2b                             =     -0.19658412 eV
--------------------------------------------------------------------------------
  Total defect energy                   =      5.86086430 eV
--------------------------------------------------------------------------------

  Largest displacement in region 2 =   0.0142 Angstroms

  Final coordinates of region 1 :

--------------------------------------------------------------------------------
   No.  Atomic        x           y           z          Radius      Charge
        Label       (Angs)      (Angs)      (Angs)       (Angs)       (e) 
--------------------------------------------------------------------------------
     1  Sc    c     3.278261    5.645015    3.775659    0.000000    3.000000
     2  Sc    c     5.616341    2.282046    1.533773    0.000000    3.000000
     3  Cl    c     3.900211    3.874246    2.216903    0.000000    1.485000
     4  Cl    c     4.191501    6.422668    5.913912    0.000000    1.485000
     5  Cl    c     7.668981    1.446532    2.585708    0.000000    1.485000
     6  Cl    c     6.848097    4.084903    0.385763    0.000000    1.485000
     7  Cl    c     4.628761    7.266123    2.500593    0.000000    1.485000
     8  Cl    c     2.171740    3.900782    5.111682    0.000000    1.485000
     9  Cl    c     4.463746    0.616451    2.928025    0.000000    1.485000
    10  Cl    c     9.833197    3.878578    5.028362    0.000000    1.485000
    11  Cl    c     4.812605    3.605081    7.808330    0.000000    1.485000
    12  Cl    c     9.140533    6.684468    3.015504    0.000000    1.485000
    13  Cl    c     6.858344    0.673750    5.858022    0.000000    1.485000
    14  Cl    c     8.088106    6.185894    7.052757    0.000000    1.485000
    15  Sc    c     2.735557    4.912585    7.387967    0.000000    3.000000
    16  Sc    c     6.581413   -0.574544    3.723047    0.000000    3.000000
    17  Cl    c     1.325388    6.808915    2.881910    0.000000    1.485000
    18  Cl    c     5.071404    1.450719   -0.696672    0.000000    1.485000
    19  Sc    c    11.237376    5.440497    3.641162    0.000000    3.000000
    20  Cl    c    10.904596    3.939544    1.655792    0.000000    1.485000
    21  Sc    c    10.283587    4.978086    7.248330    0.000000    3.000000
    22  Cl    c     3.383535    0.276818    7.057842    0.000000    1.485000
    23  Sc    c     2.649392    8.676435    1.718303    0.000000    3.000000
    24  Cl    c     9.139182    3.080626    8.421637    0.000000    1.485000
    25  Sc    c     6.521786    3.151392   -1.965504    0.000000    3.000000
    26  Cl    c     7.038051    9.707723    5.035348    0.000000    1.485000
    27  Sc    c     3.691847    1.729287    9.082368    0.000000    3.000000
    28  Sc    c     5.555814   -0.957634    7.289262    0.000000    3.000000
    29  Cl    c     1.597733    3.007079    8.501068    0.000000    1.485000
    30  Cl    c     5.171823   -2.105576    5.079501    0.000000    1.485000
    31  Cl    c     4.446067    4.442173   -2.440204    0.000000    1.485000
    32  Cl    c     2.339808    7.459958   -0.431061    0.000000    1.485000
    33  Cl    c     8.076667    9.784037    1.655415    0.000000    1.485000
    34  Cl    c     3.087920    6.448460    9.306970    0.000000    1.485000
    35  Cl    c     5.892478    0.554376    9.253895    0.000000    1.485000
    36  Cl    c     0.190529    1.447500    2.416175    0.000000    1.485000
    37  Cl    c     2.997378   10.001357    3.802203    0.000000    1.485000
    38  Cl    c     8.785944   -1.706475    3.862150    0.000000    1.485000
    39  Cl    c     0.641684    6.224567    7.046553    0.000000    1.485000
    40  Sc    c    10.279311    8.593754    1.829865    0.000000    3.000000
    41  Cl    c     6.317627   -1.897784    1.623407    0.000000    1.485000
    42  Cl    c     5.876160    7.779584   -1.581140    0.000000    1.485000
    43  Cl    c     8.649705    1.908174   -1.589707    0.000000    1.485000
    44  Cl    c    11.628536    6.561562    5.844834    0.000000    1.485000
    45  Cl    c     6.313809    8.924581    8.416817    0.000000    1.485000
    46  Cl    c     9.865502    7.470540   -0.373384    0.000000    1.485000
    47  Sc    c     8.403672    7.684731    9.053575    0.000000    3.000000
    48  Cl    c     7.038080    6.098026   10.435738    0.000000    1.485000
    49  Cl    c    11.965039    0.841899    3.024773    0.000000    1.485000
    50  Cl    c     4.141681   10.153443    0.388797    0.000000    1.485000
    51  Cl    c    10.910589    0.339242    7.046262    0.000000    1.485000
    52  Cl    c     7.677652    5.094777   -2.992946    0.000000    1.485000
    53  Cl    c    -0.507257    4.254756    0.418144    0.000000    1.485000
    54  Cl    c    12.355938    7.327223    2.438085    0.000000    1.485000
    55  Cl    c    -1.565760    4.185394    3.782750    0.000000    1.485000
    56  Cl    c     1.264439   -1.647804    3.786539    0.000000    1.485000
    57  Cl    c     1.247812    1.946515   -1.598248    0.000000    1.485000
    58  Cl    c    10.583477    6.462251    9.241708    0.000000    1.485000
    59  Cl    c    13.404815    4.209808    3.840386    0.000000    1.485000
    60  Cl    c    10.576839   10.059806    3.839600    0.000000    1.485000
    61  Sc    c     8.402722   11.294467    3.641198    0.000000    3.000000
    62  Cl    c    -0.521480    0.671230    5.808351    0.000000    1.485000
    63  Sc    c    13.106338    2.731435    1.832360    0.000000    3.000000
    64  Cl    c     2.300745   -1.567259    0.410320    0.000000    1.485000
    65  Sc    c     7.452606   10.834164    7.245007    0.000000    3.000000
    66  Cl    c    12.357703    3.706636    7.832584    0.000000    1.485000
    67  Cl    c     9.532159    9.561942    7.838051    0.000000    1.485000
    68  Cl    c     7.666188   -2.177531    7.825335    0.000000    1.485000
    69  Sc    c     3.726318    9.044999   -1.833901    0.000000    3.000000
    70  Cl    c     4.103629    2.918113   11.235941    0.000000    1.485000
    71  Sc    c     5.591788    6.357998   -3.628949    0.000000    3.000000
    72  Cl    c     2.049630    9.551711    7.820058    0.000000    1.485000
    73  Cl    c     9.795909   -1.536138    0.426858    0.000000    1.485000
    74  Sc    c    11.228005    1.821778    9.048311    0.000000    3.000000
    75  Sc    c     0.910539    7.711017    9.073046    0.000000    3.000000
    76  Sc    c     8.496035   -3.162543    1.814911    0.000000    3.000000
    77  Cl    c     0.504276    9.913842    1.570468    0.000000    1.485000
    78  Cl    c     6.271408    1.657202   -3.932101    0.000000    1.485000
    79  Sc    c    -1.911387    2.685476    1.796993    0.000000    3.000000
    80  Sc    c    -0.939292   -0.460382    3.610820    0.000000    3.000000
    81  Cl    c    12.681452    1.621639   -0.374892    0.000000    1.485000
    82  Cl    c     6.318212   12.544162    3.024491    0.000000    1.485000
    83  Cl    c     2.344138    0.170618   10.480566    0.000000    1.485000
    84  Cl    c     4.449625   -2.846198    8.473557    0.000000    1.485000
    85  Cl    c    -0.454141    9.688156    5.030205    0.000000    1.485000
    86  Cl    c     7.309296   -1.429323   -2.374242    0.000000    1.485000
    87  Cl    c     5.264770   12.039930    7.052306    0.000000    1.485000
    88  Cl    c     9.860732    0.246923   10.439190    0.000000    1.485000
    89  Sc    c     0.848243   11.317686    3.644080    0.000000    3.000000
    90  Sc    c     8.449245    0.417605   -3.618871    0.000000    3.000000
    91  Cl    c     3.398335    7.546795   -3.812191    0.000000    1.485000
    92  Cl    c    11.974871    4.460351   -2.371409    0.000000    1.485000
    93  Sc    c    -0.945136    3.157973   -1.804175    0.000000    3.000000
    94  Cl    c     0.204437    5.050740   -2.977416    0.000000    1.485000
    95  Cl    c     3.030685   -0.787125   -2.969662    0.000000    1.485000
    96  Cl    c     8.807390   12.412110    5.845476    0.000000    1.485000
    97  Cl    c    11.626803   10.179352    0.439573    0.000000    1.485000
    98  Cl    c     8.093647    2.584488   12.450911    0.000000    1.485000
    99  Sc    c     0.939925   -3.160833    1.803751    0.000000    3.000000
   100  Sc    c    11.237180    9.056101   -1.770638    0.000000    3.000000
   101  Cl    c    -2.621150    7.285795    2.409243    0.000000    1.485000
   102  Cl    c     3.029220   -4.405157    2.412868    0.000000    1.485000
   103  Cl    c     8.798533    8.807130   11.252722    0.000000    1.485000
   104  Cl    c    14.444527    4.328583    0.443278    0.000000    1.485000
   105  Cl    c    12.678424   -1.990861    5.028066    0.000000    1.485000
   106  Cl    c     9.150359   10.309213   -2.378449    0.000000    1.485000
   107  Cl    c    -0.429430    6.088245   10.424574    0.000000    1.485000
   108  Cl    c     7.324256   -5.011604    3.020663    0.000000    1.485000
   109  Sc    c    14.056827   -0.417131    3.640105    0.000000    3.000000
   110  Cl    c    -2.624204    3.678511    7.809308    0.000000    1.485000
   111  Cl    c     0.201533   -2.168431    7.816013    0.000000    1.485000
   112  Sc    c    13.102283   -0.878545    7.238566    0.000000    3.000000
   113  Sc    c     7.449654    7.215522   12.652972    0.000000    3.000000
   114  Cl    c    11.623315    2.957578   11.243888    0.000000    1.485000
   115  Cl    c    14.440445    0.719254    5.840614    0.000000    1.485000
   116  Sc    c    -0.045591   10.823532    7.237959    0.000000    3.000000
   117  Sc    c     9.407452   -2.687877   -1.777841    0.000000    3.000000
   118  Cl    c    -3.022740    0.797270    3.002120    0.000000    1.485000
   119  Cl    c    -2.299188    1.572026   -0.410354    0.000000    1.485000
   120  Cl    c     1.324000   12.397576    5.846284    0.000000    1.485000
   121  Cl    c    10.537370   -0.785501   -2.955850    0.000000    1.485000
   122  Cl    c     6.959060    7.937460   -4.991261    0.000000    1.485000
   123  Cl    c     4.876370   10.920776   -3.005561    0.000000    1.485000
   124  Cl    c     5.265097    8.432913   12.447166    0.000000    1.485000
   125  Cl    c    -1.176118    8.929098    8.427548    0.000000    1.485000
   126  Cl    c    -1.236397   -1.930060    1.603316    0.000000    1.485000
   127  Sc    c     0.941394    0.454160   -3.603906    0.000000    3.000000
   128  Cl    c     8.043967   -4.263754   -0.383381    0.000000    1.485000
   129  Cl    c     1.646359   10.307762   -2.391005    0.000000    1.485000
   130  Cl    c     5.217371    5.201564   -5.807393    0.000000    1.485000
   131  Cl    c    10.921642    7.556376   -3.757035    0.000000    1.485000
   132  Sc    c    -3.762591    5.404071    3.611036    0.000000    3.000000
   133  Cl    c    -3.334716    6.516503    5.815012    0.000000    1.485000
   134  Sc    c     1.893118   -2.696919   -1.798353    0.000000    3.000000
   135  Sc    c     2.759135    1.342179   12.672869    0.000000    3.000000
   136  Sc    c     6.568164   -4.089908    9.043773    0.000000    3.000000
   137  Cl    c     2.307776    2.044185   -4.981959    0.000000    1.485000
   138  Cl    c    15.184494    1.474035    2.438915    0.000000    1.485000
   139  Cl    c     9.537500   13.170579    2.435296    0.000000    1.485000
   140  Cl    c     1.312161    8.814688   11.270412    0.000000    1.485000
   141  Cl    c    10.561418   -4.417076    2.427728    0.000000    1.485000
   142  Cl    c     2.030699   13.159453    2.438398    0.000000    1.485000
   143  Cl    c     9.793308    2.045870   -4.960512    0.000000    1.485000
   144  Cl    c    -1.564683    0.585713    9.198825    0.000000    1.485000
   145  Sc    c    -1.884684   -0.913770    7.213813    0.000000    3.000000
   146  Cl    c    -1.562404    7.791755   -1.598637    0.000000    1.485000
   147  Cl    c    13.409079    0.608378    9.236088    0.000000    1.485000
   148  Cl    c     4.084146   -3.897437   -1.598495    0.000000    1.485000
   149  Cl    c     7.758984   12.305994    9.246714    0.000000    1.485000
   150  Cl    c    13.411199    7.828709   -1.559334    0.000000    1.485000
   151  Sc    c    14.061673    3.199139   -1.766351    0.000000    3.000000
   152  Cl    c     6.315824    5.317746   13.834258    0.000000    1.485000
   153  Cl    c     7.050355   13.318110   -0.364045    0.000000    1.485000
   154  Cl    c    13.744524   -1.898585    1.639151    0.000000    1.485000
   155  Cl    c    -4.075882    3.920115    1.608347    0.000000    1.485000
   156  Sc    c    10.279615    1.367000   12.650701    0.000000    3.000000
   157  Cl    c     2.301941   -5.173039    5.806573    0.000000    1.485000
   158  Cl    c     0.591769    2.571946   12.440197    0.000000    1.485000
   159  Cl    c     6.258703   -5.536958    7.023502    0.000000    1.485000
   160  Cl    c     9.533153    5.952325   13.240447    0.000000    1.485000
   161  Cl    c     4.858095    0.095822   13.231853    0.000000    1.485000
   162  Cl    c    11.965975   -2.765885    8.434120    0.000000    1.485000
   163  Cl    c    13.815612    8.955841    8.449960    0.000000    1.485000
   164  Cl    c     2.038280    5.935746   13.225900    0.000000    1.485000
   165  Cl    c    14.537918    9.728056    5.054282    0.000000    1.485000
   166  Cl    c     6.965910   -2.923207   11.221926    0.000000    1.485000
   167  Cl    c     4.225314   11.943958   10.437954    0.000000    1.485000
   168  Cl    c     9.786302   -5.154284    5.825486    0.000000    1.485000
   169  Cl    c    -2.281958   -2.043037    5.007231    0.000000    1.485000
   170  Cl    c    -0.187372   -1.428746   -2.397112    0.000000    1.485000
   171  Cl    c    15.585496    6.212355    7.066558    0.000000    1.485000
   172  Sc    c    13.117978    6.351484   -3.568036    0.000000    3.000000
   173  Sc    c     7.458245   14.448173    1.838386    0.000000    3.000000
   174  Sc    c     5.580169   13.538524    9.050608    0.000000    3.000000
   175  Cl    c    -1.239052    1.673280   -3.797998    0.000000    1.485000
   176  Cl    c    -3.016829    4.430472   -2.394851    0.000000    1.485000
   177  Cl    c     0.538810   -4.275965   -0.401995    0.000000    1.485000
   178  Sc    c     8.406030    4.067293   14.455717    0.000000    3.000000
   179  Cl    c    12.760859   12.059336    7.066157    0.000000    1.485000
   180  Sc    c    -1.880408    6.315164   -3.604442    0.000000    3.000000
   181  Cl    c    -1.212762   12.583322    3.041441    0.000000    1.485000
   182  Cl    c     8.063242   -0.692560   -5.816775    0.000000    1.485000
   183  Sc    c    -0.047225    7.202334   12.647830    0.000000    3.000000
   184  Cl    c    14.533987    6.117322   10.451734    0.000000    1.485000
   185  Sc    c     9.400614   -6.299213    3.629697    0.000000    3.000000
   186  Cl    c    16.639545    6.714108    3.045907    0.000000    1.485000
   187  Cl    c    -5.102629    3.811432    5.003991    0.000000    1.485000
   188  Cl    c    -0.187452   -5.039407    3.009616    0.000000    1.485000
   189  Sc    c    -4.712511    4.941113    7.211988    0.000000    3.000000
   190  Cl    c    -4.059360    0.312360    7.006664    0.000000    1.485000
   191  Cl    c    13.747312    1.710725   -3.760102    0.000000    1.485000
   192  Sc    c    -3.761868    1.790050    9.015040    0.000000    3.000000
   193  Sc    c     1.897205   -6.309101    3.607489    0.000000    3.000000
   194  Cl    c     3.092144    2.848487   14.640204    0.000000    1.485000
   195  Cl    c     0.270603   12.289982    9.237276    0.000000    1.485000
   196  Cl    c     8.764556   -5.268230    9.217938    0.000000    1.485000
   197  Cl    c     3.099322   13.653006   -1.574322    0.000000    1.485000
   198  Cl    c    11.582737   -3.897438   -1.571719    0.000000    1.485000
   199  Cl    c     8.748913    5.570075   -6.974208    0.000000    1.485000
   200  Sc    c     2.788950   12.201859   -3.593689    0.000000    3.000000
   201  Sc    c     6.578436    6.797847   -7.203422    0.000000    3.000000
   202  Cl    c    15.584177    9.815085    1.666256    0.000000    1.485000
   203  Cl    c    -3.324045   10.124478    0.417595    0.000000    1.485000
   204  Cl    c    -0.501357    7.889493   -4.983778    0.000000    1.485000
   205  Cl    c    17.355611    3.879457    5.048150    0.000000    1.485000
   206  Cl    c     9.140106   -0.525579   13.830998    0.000000    1.485000
   207  Cl    c    13.813926   12.563399    3.045237    0.000000    1.485000
   208  Cl    c    15.195887    5.090862   -2.953482    0.000000    1.485000
   209  Cl    c    12.371050   10.941924   -2.961040    0.000000    1.485000
   210  Cl    c     4.229265   15.552744    5.038123    0.000000    1.485000
   211  Sc    c    -4.711160    8.555736    1.803253    0.000000    3.000000
   212  Cl    c     3.438491   -3.264725   12.412974    0.000000    1.485000
   213  Cl    c     5.268069   15.651700    1.648049    0.000000    1.485000
   214  Sc    c     0.901645    4.055649   14.445199    0.000000    3.000000
   215  Sc    c    14.953202   10.851789    7.260851    0.000000    3.000000
   216  Cl    c    16.635782    3.102087    8.445459    0.000000    1.485000
   217  Sc    c     8.445331   -6.757480    7.222450    0.000000    3.000000
   218  Cl    c    -2.220745   12.034898    7.023871    0.000000    1.485000
   219  Cl    c     9.088723   -4.147736   -3.782413    0.000000    1.485000
   220  Cl    c    11.708996   11.964986   10.454304    0.000000    1.485000
   221  Sc    c    10.290608   12.209204   -3.569681    0.000000    3.000000
   222  Sc    c    15.903918    7.701069    9.064828    0.000000    3.000000
   223  Cl    c     3.493111   14.784313    8.432433    0.000000    1.485000
   224  Cl    c    12.702385    5.228071   -5.768162    0.000000    1.485000
   225  Cl    c    12.755982    8.450815   12.465637    0.000000    1.485000
   226  Cl    c    -4.387084    6.433188    9.198984    0.000000    1.485000
   227  Cl    c    -4.388174   10.035179    3.801770    0.000000    1.485000
   228  Cl    c     1.264032   -5.260959    9.193771    0.000000    1.485000
   229  Cl    c     5.209114   -5.659016   10.435031    0.000000    1.485000
   230  Cl    c     1.635478   -0.548723   13.855602    0.000000    1.485000
   231  Cl    c    10.591333    2.855105   14.642680    0.000000    1.485000
   232  Cl    c     7.757548    8.699456   14.644845    0.000000    1.485000
   233  Cl    c     4.092093   -7.501757    3.793421    0.000000    1.485000
   234  Cl    c    16.234667   -1.631224    3.839111    0.000000    1.485000
   235  Cl    c     1.263137    5.551323   -6.992564    0.000000    1.485000
   236  Cl    c    16.234603    1.975755   -1.557820    0.000000    1.485000
   237  Cl    c    -0.423566   13.290033   -0.374781    0.000000    1.485000
   238  Cl    c     4.089513   -0.293362   -6.995480    0.000000    1.485000
   239  Cl    c     7.761800   15.914475    3.845605    0.000000    1.485000
   240  Cl    c     7.318652    2.213746   -7.757719    0.000000    1.485000
   241  Cl    c    10.586091   13.670077   -1.552383    0.000000    1.485000
   242  Sc    c    -0.934619   -4.067082    9.015479    0.000000    3.000000
   243  Cl    c    -3.342804    2.913301   11.214209    0.000000    1.485000
   244  Cl    c    15.183837   -2.134536    7.834698    0.000000    1.485000
   245  Cl    c     5.132360   -3.798521   -4.989786    0.000000    1.485000
   246  Cl    c     6.712900   15.414007    7.839771    0.000000    1.485000
   247  Sc    c    -0.042602   14.444415    1.817601    0.000000    3.000000
   248  Cl    s     3.993787    3.889116    2.291215    0.000000   -2.485000
   249  Cl    s     4.038695    6.271457    5.829854    0.000000   -2.485000
   250  Cl    s     7.443835    1.397751    2.572131    0.000000   -2.485000
   251  Cl    s     4.414816    7.222461    2.550555    0.000000   -2.485000
   252  Cl    s     6.735128    3.897603    0.337958    0.000000   -2.485000
   253  Cl    s     2.292089    4.092073    5.141041    0.000000   -2.485000
   254  Cl    s     4.674880    0.677718    2.868611    0.000000   -2.485000
   255  Cl    s     4.601665    3.579144    7.851982    0.000000   -2.485000
   256  Cl    s     6.756762    0.492274    5.796043    0.000000   -2.485000
   257  Cl    s     9.944565    4.045874    5.078463    0.000000   -2.485000
   258  Cl    s     9.338337    6.722118    2.980381    0.000000   -2.485000
   259  Cl    s     8.243683    6.200887    7.187460    0.000000   -2.485000
   260  Cl    s     1.558200    6.818612    2.887461    0.000000   -2.485000
   261  Cl    s     5.195172    1.614508   -0.586813    0.000000   -2.485000
   262  Cl    s    11.061213    3.958697    1.794505    0.000000   -2.485000
   263  Cl    s     3.544946    0.293243    7.200601    0.000000   -2.485000
   264  Cl    s     9.343189    3.123811    8.383339    0.000000   -2.485000
   265  Cl    s     7.148911    9.877365    5.086016    0.000000   -2.485000
   266  Cl    s     1.810287    3.060417    8.457776    0.000000   -2.485000
   267  Cl    s     5.294377   -1.924115    5.123516    0.000000   -2.485000
   268  Cl    s    11.513583    6.384127    5.790671    0.000000   -2.485000
   269  Cl    s     2.448105    7.637169   -0.367010    0.000000   -2.485000
   270  Cl    s     4.658510    4.471300   -2.475949    0.000000   -2.485000
   271  Cl    s     5.723602    0.533144    9.110580    0.000000   -2.485000
   272  Cl    s     8.236966    9.801021    1.792700    0.000000   -2.485000
   273  Cl    s     2.928893    6.418598    9.155853    0.000000   -2.485000
   274  Cl    s     8.612116   -1.715105    3.725200    0.000000   -2.485000
   275  Cl    s     0.804432    6.228963    7.188602    0.000000   -2.485000
   276  Cl    s     6.470542   -1.879362    1.774787    0.000000   -2.485000
   277  Cl    s     2.839881    9.987585    3.652517    0.000000   -2.485000
   278  Cl    s     8.489107    1.899008   -1.736761    0.000000   -2.485000
   279  Cl    s     5.716771    7.767386   -1.727940    0.000000   -2.485000
   280  Cl    s     6.518693    8.965085    8.381111    0.000000   -2.485000
   281  Cl    s    -0.007752    1.409171    2.452177    0.000000   -2.485000
   282  Cl    s     9.976124    7.641401   -0.318158    0.000000   -2.485000
   283  Cl    s     4.011529    9.978149    0.340935    0.000000   -2.485000
   284  Cl    s     7.463886    5.038517   -2.959523    0.000000   -2.485000
   285  Cl    s     7.150703    6.270577   10.484794    0.000000   -2.485000
   286  Cl    s    12.145433    7.284326    2.477769    0.000000   -2.485000
   287  Cl    s    12.167712    0.884279    2.986387    0.000000   -2.485000
   288  Cl    s    11.068052    0.357131    7.185513    0.000000   -2.485000
   289  Cl    s    10.420459    6.443711    9.097448    0.000000   -2.485000
   290  Cl    s    13.240386    4.195770    3.697704    0.000000   -2.485000
   291  Cl    s    10.415091   10.042881    3.695107    0.000000   -2.485000
   292  Cl    s    -0.618023    4.086883    0.367382    0.000000   -2.485000
   293  Cl    s    12.146744    3.669087    7.871312    0.000000   -2.485000
   294  Cl    s     9.322613    9.520608    7.878303    0.000000   -2.485000
   295  Cl    s     1.103943   -1.665369    3.648895    0.000000   -2.485000
   296  Cl    s    -1.721279    4.167846    3.644521    0.000000   -2.485000
   297  Cl    s     1.093156    1.931298   -1.733863    0.000000   -2.485000
   298  Cl    s     7.454817   -2.214777    7.863396    0.000000   -2.485000
   299  Cl    s     3.990866    2.740532   11.178396    0.000000   -2.485000
   300  Cl    s    -0.632036    0.499644    5.753835    0.000000   -2.485000
   301  Cl    s     1.842871    9.507709    7.864052    0.000000   -2.485000
   302  Cl    s     2.191612   -1.735924    0.358997    0.000000   -2.485000
   303  Cl    s     9.683081   -1.714208    0.379791    0.000000   -2.485000
   304  Cl    s     0.677456    9.911646    1.709319    0.000000   -2.485000
   305  Cl    s     6.423574    1.685503   -3.772904    0.000000   -2.485000
   306  Cl    s     2.462908    0.351044   10.521247    0.000000   -2.485000
   307  Cl    s     4.657900   -2.793115    8.427271    0.000000   -2.485000
   308  Cl    s    12.794658    1.793770   -0.319836    0.000000   -2.485000
   309  Cl    s     6.524392   12.581951    2.988948    0.000000   -2.485000
   310  Cl    s     3.565556    7.566106   -3.667851    0.000000   -2.485000
   311  Cl    s    -0.340465    9.864577    5.078753    0.000000   -2.485000
   312  Cl    s     7.515981   -1.384708   -2.416278    0.000000   -2.485000
   313  Cl    s     5.426285   12.054616    7.190326    0.000000   -2.485000
   314  Cl    s     9.975287    0.420889   10.488660    0.000000   -2.485000
   315  Cl    s     8.691820   12.235232    5.791864    0.000000   -2.485000
   316  Cl    s    11.511656   10.001529    0.388567    0.000000   -2.485000
   317  Cl    s    12.179298    4.499758   -2.408559    0.000000   -2.485000
   318  Cl    s     2.825267   -0.827681   -2.933481    0.000000   -2.485000
   319  Cl    s    -0.000383    5.007696   -2.939080    0.000000   -2.485000
   320  Cl    s     8.685012    8.630225   11.195999    0.000000   -2.485000
   321  Cl    s    14.330680    4.151088    0.392330    0.000000   -2.485000
   322  Cl    s     8.253365    2.600902   12.590600    0.000000   -2.485000
   323  Cl    s    12.792764   -1.817611    5.080224    0.000000   -2.485000
   324  Cl    s     2.823033   -4.442934    2.449186    0.000000   -2.485000
   325  Cl    s    -0.314591    6.265351   10.474480    0.000000   -2.485000
   326  Cl    s    -2.823567    7.243411    2.449202    0.000000   -2.485000
   327  Cl    s     7.532701   -4.967477    2.979630    0.000000   -2.485000
   328  Cl    s    11.510277    2.781129   11.188967    0.000000   -2.485000
   329  Cl    s    -2.812675    0.841416    2.961731    0.000000   -2.485000
   330  Cl    s    14.327660    0.542157    5.787141    0.000000   -2.485000
   331  Cl    s     9.355964   10.347587   -2.414278    0.000000   -2.485000
   332  Cl    s    -2.184370    1.748802   -0.354856    0.000000   -2.485000
   333  Cl    s     1.203470   12.221590    5.789535    0.000000   -2.485000
   334  Cl    s    10.323502   -0.828889   -2.922190    0.000000   -2.485000
   335  Cl    s    -1.074821   -1.912629    1.747517    0.000000   -2.485000
   336  Cl    s    -0.962911    8.971286    8.391826    0.000000   -2.485000
   337  Cl    s     8.162340   -4.086530   -0.327774    0.000000   -2.485000
   338  Cl    s    14.973583    1.434025    2.476737    0.000000   -2.485000
   339  Cl    s     6.841627    7.757970   -5.037973    0.000000   -2.485000
   340  Cl    s     4.666470   10.873106   -2.962671    0.000000   -2.485000
   341  Cl    s    -0.004254   -2.205962    7.852259    0.000000   -2.485000
   342  Cl    s    -2.828363    3.639189    7.847411    0.000000   -2.485000
   343  Cl    s     1.858763   10.341675   -2.427309    0.000000   -2.485000
   344  Cl    s     5.328845    5.378769   -5.746303    0.000000   -2.485000
   345  Cl    s     9.328509   13.127978    2.476206    0.000000   -2.485000
   346  Cl    s    11.081264    7.575380   -3.615869    0.000000   -2.485000
   347  Cl    s    13.244783    0.591932    9.093857    0.000000   -2.485000
   348  Cl    s     5.424964    8.448693   12.586611    0.000000   -2.485000
   349  Cl    s     1.199338    8.637288   11.206552    0.000000   -2.485000
   350  Cl    s    10.346819   -4.450189    2.462136    0.000000   -2.485000
   351  Cl    s     7.597877   12.287573    9.101922    0.000000   -2.485000
   352  Cl    s    -3.448134    6.343901    5.759728    0.000000   -2.485000
   353  Cl    s    13.249220    7.813022   -1.702227    0.000000   -2.485000
   354  Cl    s     2.195556    1.870976   -5.031847    0.000000   -2.485000
   355  Cl    s     1.821373   13.115978    2.478660    0.000000   -2.485000
   356  Cl    s     9.677595    1.868406   -5.012453    0.000000   -2.485000
   357  Cl    s    -1.724743    0.566484    9.057638    0.000000   -2.485000
   358  Cl    s    -3.910260    3.933495    1.749705    0.000000   -2.485000
   359  Cl    s     3.923171   -3.912817   -1.737703    0.000000   -2.485000
   360  Cl    s     6.522535    5.360961   13.796005    0.000000   -2.485000
   361  Cl    s    -1.720606    7.774863   -1.738634    0.000000   -2.485000
   362  Cl    s    -2.166468   -1.864816    5.056878    0.000000   -2.485000
   363  Cl    s     9.323954    5.912790   13.279419    0.000000   -2.485000
   364  Cl    s     7.162731   13.490939   -0.310998    0.000000   -2.485000
   365  Cl    s    13.902888   -1.880205    1.780734    0.000000   -2.485000
   366  Cl    s     0.022131   -1.386813   -2.436379    0.000000   -2.485000
   367  Cl    s     0.754768    2.586535   12.582008    0.000000   -2.485000
   368  Cl    s     6.419082   -5.518679    7.167740    0.000000   -2.485000
   369  Cl    s     4.648066    0.055593   13.270722    0.000000   -2.485000
   370  Cl    s     6.852026   -3.100232   11.167718    0.000000   -2.485000
   371  Cl    s    12.171944   -2.722909    8.394648    0.000000   -2.485000
   372  Cl    s     1.830008    5.897313   13.264698    0.000000   -2.485000
   373  Cl    s     2.190121   -5.346344    5.753214    0.000000   -2.485000
   374  Cl    s     9.674444   -5.330037    5.771018    0.000000   -2.485000
   375  Cl    s     4.337512   12.117452   10.489500    0.000000   -2.485000
   376  Cl    s    14.021267    8.996836    8.412411    0.000000   -2.485000
   377  Cl    s    14.650969    9.901136    5.106010    0.000000   -2.485000
   378  Cl    s    -1.076223    1.691845   -3.653031    0.000000   -2.485000
   379  Cl    s    15.745420    6.229069    7.206359    0.000000   -2.485000
   380  Cl    s     0.654517   -4.098347   -0.348197    0.000000   -2.485000
   381  Cl    s    -2.805572    4.467797   -2.432695    0.000000   -2.485000
   382  Cl    s    -0.997907   12.614320    3.004927    0.000000   -2.485000
   383  Cl    s     8.174258   -0.512580   -5.753406    0.000000   -2.485000
   384  Cl    s     0.021545   -4.995262    2.968276    0.000000   -2.485000
   385  Cl    s    -4.988080    3.988622    5.054649    0.000000   -2.485000
   386  Cl    s    -3.896851    0.328027    7.148950    0.000000   -2.485000
   387  Cl    s    12.920633   12.076887    7.206416    0.000000   -2.485000
   388  Cl    s     2.928105    2.826794   14.495650    0.000000   -2.485000
   389  Cl    s     8.597146   -5.285029    9.076687    0.000000   -2.485000
   390  Cl    s    14.647115    6.290485   10.504422    0.000000   -2.485000
   391  Cl    s    13.906605    1.729582   -3.617949    0.000000   -2.485000
   392  Cl    s     0.110101   12.269250    9.090570    0.000000   -2.485000
   393  Cl    s    16.845264    6.755032    3.008154    0.000000   -2.485000
   394  Cl    s    11.416350   -3.909853   -1.712864    0.000000   -2.485000
   395  Cl    s    14.985134    5.048940   -2.915469    0.000000   -2.485000
   396  Cl    s     2.939492   13.635441   -1.718282    0.000000   -2.485000
   397  Cl    s     8.586711    5.555731   -7.115795    0.000000   -2.485000
   398  Cl    s    12.161266   10.898453   -2.921389    0.000000   -2.485000
   399  Cl    s    15.744571    9.832752    1.806273    0.000000   -2.485000
   400  Cl    s    -3.439246    9.951207    0.364207    0.000000   -2.485000
   401  Cl    s     9.347419   -0.482121   13.792339    0.000000   -2.485000
   402  Cl    s    -0.616669    7.715423   -5.034616    0.000000   -2.485000
   403  Cl    s    17.469486    4.052633    5.100685    0.000000   -2.485000
   404  Cl    s    10.427652    2.836994   14.499310    0.000000   -2.485000
   405  Cl    s     5.430186   15.667806    1.788460    0.000000   -2.485000
   406  Cl    s    -2.055168   12.048358    7.165880    0.000000   -2.485000
   407  Cl    s     9.249805   -4.127974   -3.636004    0.000000   -2.485000
   408  Cl    s     7.595399    8.680216   14.500014    0.000000   -2.485000
   409  Cl    s     4.341466   15.726387    5.090141    0.000000   -2.485000
   410  Cl    s    14.020086   12.603906    3.008083    0.000000   -2.485000
   411  Cl    s     3.598249   -3.249553   12.555743    0.000000   -2.485000
   412  Cl    s    16.070233   -1.646268    3.696794    0.000000   -2.485000
   413  Cl    s     5.325566   -5.478931   10.483023    0.000000   -2.485000
   414  Cl    s     1.846025   -0.502416   13.812552    0.000000   -2.485000
   415  Cl    s     3.701176   14.824361    8.395429    0.000000   -2.485000
   416  Cl    s    16.071158    1.961452   -1.700038    0.000000   -2.485000
   417  Cl    s    14.973043   -2.173418    7.872758    0.000000   -2.485000
   418  Cl    s     7.601075   15.896151    3.700973    0.000000   -2.485000
   419  Cl    s    12.815506    5.401983   -5.713080    0.000000   -2.485000
   420  Cl    s     1.101798   -5.279386    9.053524    0.000000   -2.485000
   421  Cl    s    10.425432   13.654054   -1.696298    0.000000   -2.485000
   422  Cl    s    16.841761    3.143840    8.407626    0.000000   -2.485000
   423  Cl    s     3.928978   -7.518563    3.653772    0.000000   -2.485000
   424  Cl    s     6.504278   15.371066    7.880392    0.000000   -2.485000
   425  Cl    s    -4.547338    6.413437    9.057193    0.000000   -2.485000
   426  Cl    s    -0.311683   13.466150   -0.321415    0.000000   -2.485000
   427  Cl    s     7.526448    2.251398   -7.797131    0.000000   -2.485000
   428  Cl    s    11.821833   12.138263   10.506065    0.000000   -2.485000
   429  Cl    s    -4.547192   10.016557    3.660062    0.000000   -2.485000
   430  Cl    s    -3.456232    2.739509   11.158936    0.000000   -2.485000
   431  Cl    s    12.915883    8.467398   12.605581    0.000000   -2.485000
   432  Cl    s     3.928901   -0.307808   -7.134382    0.000000   -2.485000
   433  Cl    s     1.104118    5.535549   -7.132563    0.000000   -2.485000
   434  Cl    s     5.019933   -3.972042   -5.039624    0.000000   -2.485000
--------------------------------------------------------------------------------

  Final coordinates of symmetry reduced region 1 (relative to defect centre):

--------------------------------------------------------------------------------
   No.  Atomic        x           y           z          Charge
        Label       (Angs)      (Angs)      (Angs)         (e) 
--------------------------------------------------------------------------------
     1  Sc    c    -2.634394    1.445310   -0.055979    3.000000
     2  Sc    c    -0.296314   -1.917659   -2.297865    3.000000
     3  Cl    c    -2.012445   -0.325459   -1.614735    1.485000
     4  Cl    c    -1.721155    2.222963    2.082274    1.485000
     5  Cl    c     1.756325   -2.753173   -1.245929    1.485000
     6  Cl    c     0.935441   -0.114802   -3.445875    1.485000
     7  Cl    c    -1.283895    3.066418   -1.331044    1.485000
     8  Cl    c    -3.740916   -0.298923    1.280044    1.485000
     9  Cl    c    -1.448909   -3.583254   -0.903613    1.485000
    10  Cl    c     3.920542   -0.321127    1.196724    1.485000
    11  Cl    c    -1.100051   -0.594624    3.976692    1.485000
    12  Cl    c     3.227877    2.484763   -0.816134    1.485000
    13  Cl    c     0.945688   -3.525955    2.026385    1.485000
    14  Cl    c     2.175451    1.986189    3.221119    1.485000
    15  Sc    c    -3.177099    0.712880    3.556329    3.000000
    16  Sc    c     0.668758   -4.774249   -0.108591    3.000000
    17  Cl    c    -4.587268    2.609210   -0.949728    1.485000
    18  Cl    c    -0.841251   -2.748986   -4.528310    1.485000
    19  Sc    c     5.324721    1.240792   -0.190476    3.000000
    20  Cl    c     4.991941   -0.260161   -2.175846    1.485000
    21  Sc    c     4.370932    0.778381    3.416692    3.000000
    22  Cl    c    -2.529120   -3.922887    3.226204    1.485000
    23  Sc    c    -3.263263    4.476730   -2.113335    3.000000
    24  Cl    c     3.226527   -1.119079    4.589999    1.485000
    25  Sc    c     0.609130   -1.048313   -5.797142    3.000000
    26  Cl    c     1.125395    5.508018    1.203710    1.485000
    27  Sc    c    -2.220809   -2.470418    5.250730    3.000000
    28  Sc    c    -0.356841   -5.157339    3.457625    3.000000
    29  Cl    c    -4.314922   -1.192626    4.669430    1.485000
    30  Cl    c    -0.740833   -6.305281    1.247863    1.485000
    31  Cl    c    -1.466589    0.242468   -6.271842    1.485000
    32  Cl    c    -3.572847    3.260253   -4.262698    1.485000
    33  Cl    c     2.164011    5.584332   -2.176223    1.485000
    34  Cl    c    -2.824736    2.248755    5.475333    1.485000
    35  Cl    c    -0.020177   -3.645329    5.422257    1.485000
    36  Cl    c    -5.722126   -2.752205   -1.415463    1.485000
    37  Cl    c    -2.915278    5.801652   -0.029435    1.485000
    38  Cl    c     2.873289   -5.906180    0.030512    1.485000
    39  Cl    c    -5.270971    2.024862    3.214915    1.485000
    40  Sc    c     4.366656    4.394049   -2.001773    3.000000
    41  Cl    c     0.404972   -6.097489   -2.208231    1.485000
    42  Cl    c    -0.036496    3.579879   -5.412778    1.485000
    43  Cl    c     2.737049   -2.291531   -5.421345    1.485000
    44  Cl    c     5.715881    2.361857    2.013196    1.485000
    45  Cl    c     0.401153    4.724876    4.585179    1.485000
    46  Cl    c     3.952846    3.270835   -4.205022    1.485000
    47  Sc    c     2.491016    3.485026    5.221937    3.000000
    48  Cl    c     1.125424    1.898321    6.604100    1.485000
    49  Cl    c     6.052384   -3.357806   -0.806865    1.485000
    50  Cl    c    -1.770974    5.953738   -3.442841    1.485000
    51  Cl    c     4.997934   -3.860463    3.214624    1.485000
    52  Cl    c     1.764996    0.895072   -6.824584    1.485000
    53  Cl    c    -6.419913    0.055051   -3.413494    1.485000
    54  Cl    c     6.443282    3.127518   -1.393553    1.485000
    55  Cl    c    -7.478416   -0.014311   -0.048888    1.485000
    56  Cl    c    -4.648216   -5.847509   -0.045099    1.485000
    57  Cl    c    -4.664844   -2.253190   -5.429886    1.485000
    58  Cl    c     4.670822    2.262545    5.410070    1.485000
    59  Cl    c     7.492160    0.010103    0.008748    1.485000
    60  Cl    c     4.664184    5.860101    0.007962    1.485000
    61  Sc    c     2.490067    7.094762   -0.190440    3.000000
    62  Cl    c    -6.434136   -3.528475    1.976713    1.485000
    63  Sc    c     7.193683   -1.468270   -1.999278    3.000000
    64  Cl    c    -3.611910   -5.766964   -3.421318    1.485000
    65  Sc    c     1.539951    6.634459    3.413369    3.000000
    66  Cl    c     6.445047   -0.493069    4.000946    1.485000
    67  Cl    c     3.619504    5.362237    4.006413    1.485000
    68  Cl    c     1.753533   -6.377236    3.993697    1.485000
    69  Sc    c    -2.186337    4.845294   -5.665539    3.000000
    70  Cl    c    -1.809026   -1.281592    7.404303    1.485000
    71  Sc    c    -0.320868    2.158293   -7.460587    3.000000
    72  Cl    c    -3.863026    5.352005    3.988420    1.485000
    73  Cl    c     3.883253   -5.735843   -3.404780    1.485000
    74  Sc    c     5.315349   -2.377927    5.216673    3.000000
    75  Sc    c    -5.002116    3.511312    5.241408    3.000000
    76  Sc    c     2.583380   -7.362248   -2.016727    3.000000
    77  Cl    c    -5.408379    5.714137   -2.261170    1.485000
    78  Cl    c     0.358753   -2.542504   -7.763739    1.485000
    79  Sc    c    -7.824043   -1.514229   -2.034645    3.000000
    80  Sc    c    -6.851947   -4.660087   -0.220818    3.000000
    81  Cl    c     6.768797   -2.578066   -4.206530    1.485000
    82  Cl    c     0.405556    8.344457   -0.807147    1.485000
    83  Cl    c    -3.568518   -4.029087    6.648928    1.485000
    84  Cl    c    -1.463031   -7.045903    4.641919    1.485000
    85  Cl    c    -6.366796    5.488451    1.198567    1.485000
    86  Cl    c     1.396640   -5.629028   -6.205880    1.485000
    87  Cl    c    -0.647885    7.840225    3.220668    1.485000
    88  Cl    c     3.948077   -3.952782    6.607552    1.485000
    89  Sc    c    -5.064413    7.117981   -0.187557    3.000000
    90  Sc    c     2.536589   -3.782100   -7.450509    3.000000
    91  Cl    c    -2.514321    3.347090   -7.643829    1.485000
    92  Cl    c     6.062216    0.260646   -6.203047    1.485000
    93  Sc    c    -6.857792   -1.041732   -5.635813    3.000000
    94  Cl    c    -5.708219    0.851035   -6.809053    1.485000
    95  Cl    c    -2.881970   -4.986830   -6.801300    1.485000
    96  Cl    c     2.894735    8.212405    2.013838    1.485000
    97  Cl    c     5.714148    5.979647   -3.392065    1.485000
    98  Cl    c     2.180991   -1.615217    8.619273    1.485000
    99  Sc    c    -4.972731   -7.360538   -2.027887    3.000000
   100  Sc    c     5.324525    4.856396   -5.602276    3.000000
   101  Cl    c    -8.533805    3.086090   -1.422395    1.485000
   102  Cl    c    -2.883435   -8.604862   -1.418770    1.485000
   103  Cl    c     2.885877    4.607425    7.421084    1.485000
   104  Cl    c     8.531871    0.128878   -3.388360    1.485000
   105  Cl    c     6.765769   -6.190566    1.196428    1.485000
   106  Cl    c     3.237703    6.109508   -6.210087    1.485000
   107  Cl    c    -6.342085    1.888540    6.592936    1.485000
   108  Cl    c     1.411601   -9.211309   -0.810975    1.485000
   109  Sc    c     8.144172   -4.616836   -0.191533    3.000000
   110  Cl    c    -8.536860   -0.521194    3.977670    1.485000
   111  Cl    c    -5.711123   -6.368136    3.984375    1.485000
   112  Sc    c     7.189628   -5.078250    3.406928    3.000000
   113  Sc    c     1.536999    3.015817    8.821334    3.000000
   114  Cl    c     5.710659   -1.242127    7.412250    1.485000
   115  Cl    c     8.527789   -3.480451    2.008976    1.485000
   116  Sc    c    -5.958247    6.623827    3.406321    3.000000
   117  Sc    c     3.494796   -6.887582   -5.609479    3.000000
   118  Cl    c    -8.935396   -3.402435   -0.829518    1.485000
   119  Cl    c    -8.211844   -2.627679   -4.241992    1.485000
   120  Cl    c    -4.588656    8.197871    2.014646    1.485000
   121  Cl    c     4.624715   -4.985206   -6.787488    1.485000
   122  Cl    c     1.046405    3.737755   -8.822899    1.485000
   123  Cl    c    -1.036285    6.721071   -6.837199    1.485000
   124  Cl    c    -0.647558    4.233208    8.615528    1.485000
   125  Cl    c    -7.088773    4.729393    4.595910    1.485000
   126  Cl    c    -7.149053   -6.129765   -2.228321    1.485000
   127  Sc    c    -4.971261   -3.745545   -7.435544    3.000000
   128  Cl    c     2.131312   -8.463459   -4.215019    1.485000
   129  Cl    c    -4.266296    6.108057   -6.222643    1.485000
   130  Cl    c    -0.695284    1.001859   -9.639031    1.485000
   131  Cl    c     5.008987    3.356671   -7.588673    1.485000
   132  Sc    c    -9.675246    1.204366   -0.220602    3.000000
   133  Cl    c    -9.247372    2.316798    1.983374    1.485000
   134  Sc    c    -4.019538   -6.896624   -5.629990    3.000000
   135  Sc    c    -3.153520   -2.857526    8.841231    3.000000
   136  Sc    c     0.655509   -8.289613    5.212135    3.000000
   137  Cl    c    -3.604879   -2.155520   -8.813597    1.485000
   138  Cl    c     9.271839   -2.725670   -1.392723    1.485000
   139  Cl    c     3.624845    8.970874   -1.396342    1.485000
   140  Cl    c    -4.600495    4.614983    7.438774    1.485000
   141  Cl    c     4.648763   -8.616781   -1.403910    1.485000
   142  Cl    c    -3.881957    8.959748   -1.393240    1.485000
   143  Cl    c     3.880653   -2.153835   -8.792150    1.485000
   144  Cl    c    -7.477338   -3.613993    5.367187    1.485000
   145  Sc    c    -7.797340   -5.113475    3.382175    3.000000
   146  Cl    c    -7.475059    3.592050   -5.430274    1.485000
   147  Cl    c     7.496423   -3.591327    5.404450    1.485000
   148  Cl    c    -1.828510   -8.097142   -5.430133    1.485000
   149  Cl    c     1.846329    8.106289    5.415076    1.485000
   150  Cl    c     7.498544    3.629004   -5.390972    1.485000
   151  Sc    c     8.149017   -1.000566   -5.597988    3.000000
   152  Cl    c     0.403169    1.118041   10.002620    1.485000
   153  Cl    c     1.137699    9.118405   -4.195683    1.485000
   154  Cl    c     7.831868   -6.098290   -2.192487    1.485000
   155  Cl    c    -9.988538   -0.279590   -2.223291    1.485000
   156  Sc    c     4.366959   -2.832705    8.819063    3.000000
   157  Cl    c    -3.610714   -9.372744    1.974935    1.485000
   158  Cl    c    -5.320887   -1.627759    8.608559    1.485000
   159  Cl    c     0.346047   -9.736663    3.191864    1.485000
   160  Cl    c     3.620497    1.752620    9.408809    1.485000
   161  Cl    c    -1.054561   -4.103883    9.400215    1.485000
   162  Cl    c     6.053319   -6.965590    4.602482    1.485000
   163  Cl    c     7.902957    4.756136    4.618322    1.485000
   164  Cl    c    -3.874376    1.736041    9.394262    1.485000
   165  Cl    c     8.625262    5.528351    1.222644    1.485000
   166  Cl    c     1.053254   -7.122912    7.390289    1.485000
   167  Cl    c    -1.687341    7.744253    6.606316    1.485000
   168  Cl    c     3.873647   -9.353989    1.993848    1.485000
   169  Cl    c    -8.194613   -6.242742    1.175593    1.485000
   170  Cl    c    -6.100027   -5.628452   -6.228750    1.485000
   171  Cl    c     9.672840    2.012650    3.234920    1.485000
   172  Sc    c     7.205322    2.151779   -7.399674    3.000000
   173  Sc    c     1.545589   10.248468   -1.993252    3.000000
   174  Sc    c    -0.332487    9.338819    5.218970    3.000000
   175  Cl    c    -7.151707   -2.526425   -7.629636    1.485000
   176  Cl    c    -8.929485    0.230767   -6.226489    1.485000
   177  Cl    c    -5.373845   -8.475670   -4.233632    1.485000
   178  Sc    c     2.493374   -0.132412   10.624080    3.000000
   179  Cl    c     6.848204    7.859631    3.234519    1.485000
   180  Sc    c    -7.793064    2.115459   -7.436080    3.000000
   181  Cl    c    -7.125417    8.383617   -0.790197    1.485000
   182  Cl    c     2.150586   -4.892265   -9.648413    1.485000
   183  Sc    c    -5.959881    3.002629    8.816192    3.000000
   184  Cl    c     8.621332    1.917617    6.620096    1.485000
   185  Sc    c     3.487959  -10.498918   -0.201941    3.000000
   186  Cl    c    10.726890    2.514403   -0.785731    1.485000
   187  Cl    c   -11.015285   -0.388273    1.172353    1.485000
   188  Cl    c    -6.100108   -9.239112   -0.822022    1.485000
   189  Sc    c   -10.625166    0.741408    3.380350    3.000000
   190  Cl    c    -9.972016   -3.887345    3.175026    1.485000
   191  Cl    c     7.834656   -2.488980   -7.591740    1.485000
   192  Sc    c    -9.674524   -2.409655    5.183402    3.000000
   193  Sc    c    -4.015451  -10.508806   -0.224149    3.000000
   194  Cl    c    -2.820511   -1.351218   10.808566    1.485000
   195  Cl    c    -5.642053    8.090277    5.405638    1.485000
   196  Cl    c     2.851900   -9.467935    5.386300    1.485000
   197  Cl    c    -2.813334    9.453301   -5.405960    1.485000
   198  Cl    c     5.670082   -8.097143   -5.403357    1.485000
   199  Cl    c     2.836257    1.370370  -10.805846    1.485000
   200  Sc    c    -3.123705    8.002154   -7.425327    3.000000
   201  Sc    c     0.665781    2.598142  -11.035060    3.000000
   202  Cl    c     9.671522    5.615379   -2.165382    1.485000
   203  Cl    c    -9.236700    5.924773   -3.414043    1.485000
   204  Cl    c    -6.414013    3.689788   -8.815415    1.485000
   205  Cl    c    11.442955   -0.320248    1.216512    1.485000
   206  Cl    c     3.227451   -4.725284    9.999360    1.485000
   207  Cl    c     7.901270    8.363694   -0.786401    1.485000
   208  Cl    c     9.283232    0.891157   -6.785120    1.485000
   209  Cl    c     6.458394    6.742218   -6.792678    1.485000
   210  Cl    c    -1.683390   11.353039    1.206485    1.485000
   211  Sc    c   -10.623815    4.356031   -2.028385    3.000000
   212  Cl    c    -2.474164   -7.464430    8.581336    1.485000
   213  Cl    c    -0.644587   11.451995   -2.183589    1.485000
   214  Sc    c    -5.011011   -0.144056   10.613561    3.000000
   215  Sc    c     9.040547    6.652084    3.429213    3.000000
   216  Cl    c    10.723126   -1.097618    4.613822    1.485000
   217  Sc    c     2.532676  -10.957185    3.390812    3.000000
   218  Cl    c    -8.133400    7.835193    3.192233    1.485000
   219  Cl    c     3.176067   -8.347441   -7.614051    1.485000
   220  Cl    c     5.796340    7.765281    6.622666    1.485000
   221  Sc    c     4.377953    8.009499   -7.401319    3.000000
   222  Sc    c     9.991263    3.501364    5.233190    3.000000
   223  Cl    c    -2.419545   10.584608    4.600795    1.485000
[...]
    353 y          7.816648      7.813022    -0.003626    Cartesian   -0.05
    353 z         -1.707473     -1.702227     0.005246    Cartesian   -0.31
    354 x          2.197309      2.195556    -0.001753    Cartesian   -0.08
    354 y          1.873029      1.870976    -0.002053    Cartesian   -0.11
    354 z         -5.045778     -5.031847     0.013931    Cartesian   -0.28
    355 x          1.841634      1.821373    -0.020261    Cartesian   -1.10
    355 y         13.123452     13.115978    -0.007474    Cartesian   -0.06
    355 z          2.468086      2.478660     0.010573    Cartesian    0.43
    356 x          9.690025      9.677595    -0.012429    Cartesian   -0.13
    356 y          1.890702      1.868406    -0.022296    Cartesian   -1.18
    356 z         -5.030029     -5.012453     0.017576    Cartesian   -0.35
    357 x         -1.732005     -1.724743     0.007262    Cartesian   -0.42
    357 y          0.557648      0.566484     0.008837    Cartesian    1.58
    357 z          9.066840      9.057638    -0.009201    Cartesian   -0.10
    358 x         -3.898598     -3.910260    -0.011662    Cartesian    0.30
    358 y          3.937268      3.933495    -0.003773    Cartesian   -0.10
    358 z          1.751240      1.749705    -0.001535    Cartesian   -0.09
    359 x          3.927180      3.923171    -0.004008    Cartesian   -0.10
    359 y         -3.923386     -3.912817     0.010570    Cartesian   -0.27
    359 z         -1.741945     -1.737703     0.004242    Cartesian   -0.24
    360 x          6.524282      6.522535    -0.001747    Cartesian   -0.03
    360 y          5.369697      5.360961    -0.008736    Cartesian   -0.16
    360 z         13.804587     13.796005    -0.008582    Cartesian   -0.06
    361 x         -1.724883     -1.720606     0.004277    Cartesian   -0.25
    361 y          7.781301      7.774863    -0.006438    Cartesian   -0.08
    361 z         -1.738973     -1.738634     0.000339    Cartesian   -0.02
    362 x         -2.168672     -2.166468     0.002205    Cartesian   -0.10
    362 y         -1.859109     -1.864816    -0.005706    Cartesian    0.31
    362 z          5.055093      5.056878     0.001786    Cartesian    0.04
    363 x          9.327227      9.323954    -0.003273    Cartesian   -0.04
    363 y          5.917472      5.912790    -0.004681    Cartesian   -0.08
    363 z         13.289648     13.279419    -0.010230    Cartesian   -0.08
    364 x          7.168258      7.162731    -0.005528    Cartesian   -0.08
    364 y         13.492752     13.490939    -0.001812    Cartesian   -0.01
    364 z         -0.313342     -0.310998     0.002344    Cartesian   -0.75
    365 x         13.912865     13.902888    -0.009977    Cartesian   -0.07
    365 y         -1.879729     -1.880205    -0.000476    Cartesian    0.03
    365 z          1.781254      1.780734    -0.000520    Cartesian   -0.03
    366 x          0.027628      0.022131    -0.005497    Cartesian  -19.90
    366 y         -1.387202     -1.386813     0.000388    Cartesian   -0.03
    366 z         -2.440090     -2.436379     0.003710    Cartesian   -0.15
    367 x          0.760964      0.754768    -0.006197    Cartesian   -0.81
    367 y          2.583632      2.586535     0.002904    Cartesian    0.11
    367 z         12.574288     12.582008     0.007719    Cartesian    0.06
    368 x          6.416588      6.419082     0.002494    Cartesian    0.04
    368 y         -5.509229     -5.518679    -0.009450    Cartesian    0.17
    368 z          7.168410      7.167740    -0.000670    Cartesian   -0.01
    369 x          4.660543      4.648066    -0.012477    Cartesian   -0.27
    369 y          0.047455      0.055593     0.008138    Cartesian   17.15
    369 z         13.272413     13.270722    -0.001690    Cartesian   -0.01
    370 x          6.853310      6.852026    -0.001284    Cartesian   -0.02
    370 y         -3.092434     -3.100232    -0.007798    Cartesian    0.25
    370 z         11.180176     11.167718    -0.012458    Cartesian   -0.11
    371 x         12.179906     12.171944    -0.007962    Cartesian   -0.07
    371 y         -2.723164     -2.722909     0.000255    Cartesian   -0.01
    371 z          8.398708      8.394648    -0.004060    Cartesian   -0.05
    372 x          1.834511      1.830008    -0.004503    Cartesian   -0.25
    372 y          5.899798      5.897313    -0.002485    Cartesian   -0.04
    372 z         13.273899     13.264698    -0.009201    Cartesian   -0.07
    373 x          2.190187      2.190121    -0.000066    Cartesian   -0.00
    373 y         -5.350625     -5.346344     0.004280    Cartesian   -0.08
    373 z          5.760034      5.753214    -0.006820    Cartesian   -0.12
    374 x          9.682902      9.674444    -0.008458    Cartesian   -0.09
    374 y         -5.332951     -5.330037     0.002915    Cartesian   -0.05
    374 z          5.775784      5.771018    -0.004765    Cartesian   -0.08
    375 x          4.335105      4.337512     0.002408    Cartesian    0.06
    375 y         12.121442     12.117452    -0.003990    Cartesian   -0.03
    375 z         10.493957     10.489500    -0.004456    Cartesian   -0.04
    376 x         14.020559     14.021267     0.000707    Cartesian    0.01
    376 y          8.999197      8.996836    -0.002361    Cartesian   -0.03
    376 z          8.417430      8.412411    -0.005019    Cartesian   -0.06
    377 x         14.657413     14.650969    -0.006444    Cartesian   -0.04
    377 y          9.898599      9.901136     0.002537    Cartesian    0.03
    377 z          5.105314      5.106010     0.000696    Cartesian    0.01
    378 x         -1.069006     -1.076223    -0.007217    Cartesian    0.68
    378 y          1.696751      1.691845    -0.004906    Cartesian   -0.29
    378 z         -3.653152     -3.653031     0.000121    Cartesian   -0.00
    379 x         15.749957     15.745420    -0.004538    Cartesian   -0.03
    379 y          6.230805      6.229069    -0.001737    Cartesian   -0.03
    379 z          7.202882      7.206359     0.003477    Cartesian    0.05
    380 x          0.660920      0.654517    -0.006403    Cartesian   -0.97
    380 y         -4.099627     -4.098347     0.001279    Cartesian   -0.03
    380 z         -0.349300     -0.348197     0.001102    Cartesian   -0.32
    381 x         -2.798404     -2.805572    -0.007168    Cartesian    0.26
    381 y          4.465142      4.467797     0.002655    Cartesian    0.06
    381 z         -2.438604     -2.432695     0.005909    Cartesian   -0.24
    382 x         -0.961312     -0.997907    -0.036595    Cartesian    3.81
    382 y         12.575677     12.614320     0.038644    Cartesian    0.31
    382 z          2.983025      3.004927     0.021902    Cartesian    0.73
    383 x          8.157197      8.174258     0.017060    Cartesian    0.21
    383 y         -0.470126     -0.512580    -0.042453    Cartesian    9.03
    383 z         -5.736456     -5.753406    -0.016950    Cartesian    0.30
    384 x          0.024066      0.021545    -0.002522    Cartesian  -10.48
    384 y         -4.999028     -4.995262     0.003766    Cartesian   -0.08
    384 z          2.962817      2.968276     0.005460    Cartesian    0.18
    385 x         -4.994704     -4.988080     0.006624    Cartesian   -0.13
    385 y          3.993234      3.988622    -0.004613    Cartesian   -0.12
    385 z          5.056579      5.054649    -0.001930    Cartesian   -0.04
    386 x         -3.902159     -3.896851     0.005308    Cartesian   -0.14
    386 y          0.325441      0.328027     0.002586    Cartesian    0.79
    386 z          7.154146      7.148950    -0.005196    Cartesian   -0.07
    387 x         12.923926     12.920633    -0.003293    Cartesian   -0.03
    387 y         12.083149     12.076887    -0.006262    Cartesian   -0.05
    387 z          7.204368      7.206416     0.002048    Cartesian    0.03
    388 x          2.931118      2.928105    -0.003013    Cartesian   -0.10
    388 y          2.815838      2.826794     0.010956    Cartesian    0.39
    388 z         14.486982     14.495650     0.008669    Cartesian    0.06
    389 x          8.586742      8.597146     0.010404    Cartesian    0.12
    389 y         -5.277022     -5.285029    -0.008007    Cartesian    0.15
    389 z          9.081103      9.076687    -0.004416    Cartesian   -0.05
    390 x         14.653852     14.647115    -0.006737    Cartesian   -0.05
    390 y          6.286772      6.290485     0.003713    Cartesian    0.06
    390 z         10.508220     10.504422    -0.003798    Cartesian   -0.04
    391 x         13.916426     13.906605    -0.009822    Cartesian   -0.07
    391 y          1.732098      1.729582    -0.002516    Cartesian   -0.15
    391 z         -3.621653     -3.617949     0.003703    Cartesian   -0.10
    392 x          0.108648      0.110101     0.001453    Cartesian    1.34
    392 y         12.280009     12.269250    -0.010758    Cartesian   -0.09
    392 z          9.085562      9.090570     0.005008    Cartesian    0.06
    393 x         16.850152     16.845264    -0.004887    Cartesian   -0.03
    393 y          6.758680      6.755032    -0.003648    Cartesian   -0.05
    393 z          3.013038      3.008154    -0.004884    Cartesian   -0.16
    394 x         11.419896     11.416350    -0.003546    Cartesian   -0.03
    394 y         -3.905713     -3.909853    -0.004140    Cartesian    0.11
    394 z         -1.726195     -1.712864     0.013331    Cartesian   -0.77
    395 x         14.989973     14.985134    -0.004839    Cartesian   -0.03
    395 y          5.048264      5.048940     0.000676    Cartesian    0.01
    395 z         -2.922042     -2.915469     0.006573    Cartesian   -0.22
    396 x          2.941802      2.939492    -0.002310    Cartesian   -0.08
    396 y         13.651318     13.635441    -0.015877    Cartesian   -0.12
    396 z         -1.721737     -1.718282     0.003454    Cartesian   -0.20
    397 x          8.597425      8.586711    -0.010714    Cartesian   -0.12
    397 y          5.558457      5.555731    -0.002727    Cartesian   -0.05
    397 z         -7.127615     -7.115795     0.011820    Cartesian   -0.17
    398 x         12.163942     12.161266    -0.002676    Cartesian   -0.02
    398 y         10.900608     10.898453    -0.002155    Cartesian   -0.02
    398 z         -2.920556     -2.921389    -0.000833    Cartesian    0.03
    399 x         15.753519     15.744571    -0.008947    Cartesian   -0.06
    399 y          9.842632      9.832752    -0.009880    Cartesian   -0.10
    399 z          1.799976      1.806273     0.006298    Cartesian    0.35
    400 x         -3.458315     -3.439246     0.019069    Cartesian   -0.55
    400 y          9.965890      9.951207    -0.014683    Cartesian   -0.15
    400 z          0.360100      0.364207     0.004107    Cartesian    1.14
    401 x          9.350313      9.347419    -0.002895    Cartesian   -0.03
    401 y         -0.482647     -0.482121     0.000526    Cartesian   -0.11
    401 z         13.803101     13.792339    -0.010762    Cartesian   -0.08
    402 x         -0.628722     -0.616669     0.012053    Cartesian   -1.92
    402 y          7.725372      7.715423    -0.009950    Cartesian   -0.13
    402 z         -5.044292     -5.034616     0.009677    Cartesian   -0.19
    403 x         17.483444     17.469486    -0.013958    Cartesian   -0.08
    403 y          4.046255      4.052633     0.006378    Cartesian    0.16
    403 z          5.103828      5.100685    -0.003143    Cartesian   -0.06
    404 x         10.423834     10.427652     0.003818    Cartesian    0.04
    404 y          2.833512      2.836994     0.003482    Cartesian    0.12
    404 z         14.502731     14.499310    -0.003421    Cartesian   -0.02
    405 x          5.434771      5.430186    -0.004585    Cartesian   -0.08
    405 y         15.677302     15.667806    -0.009496    Cartesian   -0.06
    405 z          1.785712      1.788460     0.002748    Cartesian    0.15
    406 x         -2.061506     -2.055168     0.006338    Cartesian   -0.31
    406 y         12.047802     12.048358     0.000556    Cartesian    0.00
    406 z          7.172868      7.165880    -0.006988    Cartesian   -0.10
    407 x          9.249742      9.249805     0.000063    Cartesian    0.00
    407 y         -4.137920     -4.127974     0.009946    Cartesian   -0.24
    407 z         -3.638888     -3.636004     0.002885    Cartesian   -0.08
    408 x          7.597803      7.595399    -0.002404    Cartesian   -0.03
    408 y          8.685856      8.680216    -0.005640    Cartesian   -0.06
    408 z         14.504218     14.500014    -0.004204    Cartesian   -0.03
    409 x          4.338666      4.341466     0.002800    Cartesian    0.06
    409 y         15.733269     15.726387    -0.006881    Cartesian   -0.04
    409 z          5.091050      5.090141    -0.000909    Cartesian   -0.02
    410 x         14.024120     14.020086    -0.004035    Cartesian   -0.03
    410 y         12.611024     12.603906    -0.007117    Cartesian   -0.06
    410 z          3.014524      3.008083    -0.006441    Cartesian   -0.21
    411 x          3.586996      3.598249     0.011254    Cartesian    0.31
    411 y         -3.268712     -3.249553     0.019159    Cartesian   -0.59
    411 z         12.572802     12.555743    -0.017059    Cartesian   -0.14
    412 x         16.083019     16.070233    -0.012786    Cartesian   -0.08
    412 y         -1.647522     -1.646268     0.001254    Cartesian   -0.08
    412 z          3.693947      3.696794     0.002847    Cartesian    0.08
    413 x          5.320483      5.325566     0.005083    Cartesian    0.10
    413 y         -5.453263     -5.478931    -0.025668    Cartesian    0.47
    413 z         10.473749     10.483023     0.009275    Cartesian    0.09
    414 x          1.857597      1.846025    -0.011573    Cartesian   -0.62
    414 y         -0.500320     -0.502416    -0.002095    Cartesian    0.42
    414 z         13.787351     13.812552     0.025201    Cartesian    0.18
    415 x          3.701812      3.701176    -0.000636    Cartesian   -0.02
    415 y         14.833867     14.824361    -0.009506    Cartesian   -0.06
    415 z          8.403167      8.395429    -0.007738    Cartesian   -0.09
    416 x         16.086580     16.071158    -0.015422    Cartesian   -0.10
    416 y          1.964304      1.961452    -0.002853    Cartesian   -0.15
    416 z         -1.708959     -1.700038     0.008921    Cartesian   -0.52
    417 x         14.982851     14.973043    -0.009808    Cartesian   -0.07
    417 y         -2.175389     -2.173418     0.001971    Cartesian   -0.09
    417 z          7.883770      7.872758    -0.011012    Cartesian   -0.14
    418 x          7.604925      7.601075    -0.003851    Cartesian   -0.05
    418 y         15.909509     15.896151    -0.013358    Cartesian   -0.08
    418 z          3.698405      3.700973     0.002568    Cartesian    0.07
    419 x         12.823882     12.815506    -0.008376    Cartesian   -0.07
    419 y          5.399891      5.401983     0.002092    Cartesian    0.04
    419 z         -5.719220     -5.713080     0.006141    Cartesian   -0.11
    420 x          1.094026      1.101798     0.007772    Cartesian    0.71
    420 y         -5.294696     -5.279386     0.015310    Cartesian   -0.29
    420 z          9.065354      9.053524    -0.011830    Cartesian   -0.13
    421 x         10.434518     10.425432    -0.009085    Cartesian   -0.09
    421 y         13.668992     13.654054    -0.014938    Cartesian   -0.11
    421 z         -1.705987     -1.696298     0.009689    Cartesian   -0.57
    422 x         16.846591     16.841761    -0.004830    Cartesian   -0.03
    422 y          3.146853      3.143840    -0.003013    Cartesian   -0.10
    422 z          8.415944      8.407626    -0.008318    Cartesian   -0.10
    423 x          3.923618      3.928978     0.005360    Cartesian    0.14
    423 y         -7.535213     -7.518563     0.016650    Cartesian   -0.22
    423 z          3.660961      3.653772    -0.007190    Cartesian   -0.20
    424 x          6.504757      6.504278    -0.000479    Cartesian   -0.01
    424 y         15.381642     15.371066    -0.010576    Cartesian   -0.07
    424 z          7.888228      7.880392    -0.007837    Cartesian   -0.10
    425 x         -4.558037     -4.547338     0.010698    Cartesian   -0.23
    425 y          6.409991      6.413437     0.003445    Cartesian    0.05
    425 z          9.068326      9.057193    -0.011132    Cartesian   -0.12
    426 x         -0.324458     -0.311683     0.012775    Cartesian   -3.94
    426 y         13.475078     13.466150    -0.008928    Cartesian   -0.07
    426 z         -0.329092     -0.321415     0.007677    Cartesian   -2.33
    427 x          7.523905      7.526448     0.002544    Cartesian    0.03
    427 y          2.242299      2.251398     0.009100    Cartesian    0.41
    427 z         -7.827246     -7.797131     0.030115    Cartesian   -0.38
    428 x         11.827821     11.821833    -0.005988    Cartesian   -0.05
    428 y         12.139116     12.138263    -0.000853    Cartesian   -0.01
    428 z         10.509706     10.506065    -0.003641    Cartesian   -0.03
    429 x         -4.554475     -4.547192     0.007283    Cartesian   -0.16
    429 y         10.021818     10.016557    -0.005261    Cartesian   -0.05
    429 z          3.665420      3.660062    -0.005358    Cartesian   -0.15
    430 x         -3.465437     -3.456232     0.009205    Cartesian   -0.27
    430 y          2.742236      2.739509    -0.002727    Cartesian   -0.10
    430 z         11.165912     11.158936    -0.006976    Cartesian   -0.06
    431 x         12.920365     12.915883    -0.004482    Cartesian   -0.03
    431 y          8.471322      8.467398    -0.003924    Cartesian   -0.05
    431 z         12.607274     12.605581    -0.001693    Cartesian   -0.01
    432 x          3.930741      3.928901    -0.001840    Cartesian   -0.05
    432 y         -0.311560     -0.307808     0.003752    Cartesian   -1.20
    432 z         -7.144851     -7.134382     0.010469    Cartesian   -0.15
    433 x          1.104709      1.104118    -0.000592    Cartesian   -0.05
    433 y          5.540784      5.535549    -0.005235    Cartesian   -0.09
    433 z         -7.143365     -7.132563     0.010802    Cartesian   -0.15
    434 x          5.023340      5.019933    -0.003408    Cartesian   -0.07
    434 y         -3.979315     -3.972042     0.007273    Cartesian   -0.18
    434 z         -5.047265     -5.039624     0.007641    Cartesian   -0.15
--------------------------------------------------------------------------------


  Time to end of optimisation  =      107.6795 seconds


  Peak dynamic memory used =      30.95 MB 


  Timing analysis for GULP :

--------------------------------------------------------------------------------
  Task / Subroutine                                          Time (Seconds)
--------------------------------------------------------------------------------
  Calculation of reciprocal space energy and derivatives          0.0086
  Calculation of real space energy and derivatives                0.2152
  Calculation for region 1 energy and derivatives (2-b)          28.7084
  Calculation for region 2a energy                               73.7932
  Calculation for region 2b energy                                0.0256
  Calculation and manipulation of Hessian matrix                  0.0068
  Calculation of matrix inversion                                 4.6380
--------------------------------------------------------------------------------
  Total CPU time                                                107.6796
--------------------------------------------------------------------------------


  Dump file written as ScCl3.grs



  **** GULP has completed with   2 warnings - beware! ****

  Job Finished at 18:45.35  7th February   2022                               

