********************************************************************************
*                       GENERAL UTILITY LATTICE PROGRAM                        *
*                                 Julian Gale                                  *
*                       Curtin Institute for Computation                       *
*                    School of Molecular and Life Sciences                     *
*                    Curtin University, Western Australia                      *
********************************************************************************
* Version = 5.2.0 * Last modified =   1st June 2020                            *
********************************************************************************
*  optimise     - perform optimisation run                                     *
*  conp         - constant pressure calculation                                *
*  property     - calculate properties for final geometry                      *
*  defect       - perform defect calculation after bulk run                    *
*  compare      - compare initial and final structures                         *
********************************************************************************

  Job Started  at 18:43.41  7th February   2022                               

  Number of CPUs =     1


  Total number of configurations input =      1

********************************************************************************
*  Input for Configuration =   1                                               *
********************************************************************************

  Formula = Sc2Cl6                                                      

  Number of irreducible atoms/shells =      14


  Total number atoms/shells =      14

  Dimensionality = 3               :  Bulk   



  Cartesian lattice vectors (Angstroms) :

        7.453000    0.000000    0.000000
        4.624520    5.844744    0.000000
        4.624520    2.237970    5.399307

  Cell parameters (Angstroms/Degrees):

  a =       7.4530    alpha =  51.6480
  b =       7.4530    beta  =  51.6480
  c =       7.4530    gamma =  51.6480

  Initial cell volume =         235.198534 Angs**3

  Temperature of configuration =   0.00     K 

  Pressure of configuration =         0.000 GPa 

  Fractional coordinates of asymmetric unit :

--------------------------------------------------------------------------------
   No.  Atomic       x           y          z         Charge      Occupancy
        Label      (Frac)      (Frac)     (Frac)        (e)         (Frac)  
--------------------------------------------------------------------------------
      1 Sc    c    0.333900    0.333900    0.333900     3.00000    1.000000    
      2 Sc    c    0.666100 *  0.666100 *  0.666100 *   3.00000    1.000000    
      3 Cl    c    0.073700 *  0.443900 *  0.705300 *   1.48500    1.000000    
      4 Cl    c    0.294700 *  0.926300 *  0.556100 *   1.48500    1.000000    
      5 Cl    c    0.443900 *  0.705300 *  0.073700 *   1.48500    1.000000    
      6 Cl    c    0.556100 *  0.294700 *  0.926300 *   1.48500    1.000000    
      7 Cl    c    0.705300 *  0.073700 *  0.443900 *   1.48500    1.000000    
      8 Cl    c    0.926300 *  0.556100 *  0.294700 *   1.48500    1.000000    
      9 Cl    s    0.073700 *  0.443900 *  0.705300 *  -2.48500    1.000000    
     10 Cl    s    0.294700 *  0.926300 *  0.556100 *  -2.48500    1.000000    
     11 Cl    s    0.443900 *  0.705300 *  0.073700 *  -2.48500    1.000000    
     12 Cl    s    0.556100 *  0.294700 *  0.926300 *  -2.48500    1.000000    
     13 Cl    s    0.705300 *  0.073700 *  0.443900 *  -2.48500    1.000000    
     14 Cl    s    0.926300 *  0.556100 *  0.294700 *  -2.48500    1.000000    
--------------------------------------------------------------------------------



********************************************************************************
*  General input information                                                   *
********************************************************************************

  Species output for all configurations : 

--------------------------------------------------------------------------------
  Species    Type    Atomic    Atomic    Charge       Radii (Angs)     Library
                     Number     Mass       (e)     Cova   Ionic  VDW   Symbol
--------------------------------------------------------------------------------
    Sc       Core       21      44.96   3.000000   1.440  0.000  2.150          
    Cl       Core       17      35.45   1.485000   0.990  0.000  1.650          
    Cl       Shell      17       0.00  -2.485000   0.990  0.000  1.650          
--------------------------------------------------------------------------------


  Lattice summation method               =    Ewald          (3-D)
                                         =    Parry          (2-D)
                                         =    Saunders et al (1-D)
  Accuracy factor for lattice sums       =   12.000


  Analytic derivatives to be used

  Time limit = Infinity

  Maximum range for interatomic potentials =    100000.000000 Angstroms

  General interatomic potentials :

--------------------------------------------------------------------------------
Atom  Types   Potential      Parameter       Value         Units   Cutoffs(Ang)
  1     2                                                            Min /  Max 
--------------------------------------------------------------------------------
Cl   c Cl   s Spring (c-s)  Spring k 2       36.070000    eV*Ang^-2 0.000  0.800
                            Spring k 4       0.0000000    eV*Ang^-4 
--------------------------------------------------------------------------------
Sc   c Cl   s Buckingham    Buckingham A     2456.2200    eV        0.000 12.000
                            Buckingham rho  0.31470000    Ang       
                            Buckingham C     0.0000000    eV*Ang^6  
--------------------------------------------------------------------------------
Cl   s Cl   s Buckingham    Buckingham A     1227.2000    eV        0.000 12.000
                            Buckingham rho  0.32100000    Ang       
                            Buckingham C     14.530000    eV*Ang^6  
--------------------------------------------------------------------------------

********************************************************************************
*  Output for configuration   1                                                *
********************************************************************************


  Components of energy : 

--------------------------------------------------------------------------------
  Interatomic potentials     =          10.39244711 eV    
  Monopole - monopole (real) =         -30.86300284 eV    
  Monopole - monopole (recip)=         -65.52201623 eV    
  Monopole - monopole (total)=         -96.38501907 eV    
--------------------------------------------------------------------------------
  Total lattice energy       =         -85.99257196 eV    
--------------------------------------------------------------------------------
  Total lattice energy       =           -8296.9687 kJ/(mole unit cells)
--------------------------------------------------------------------------------


  Number of variables =       45

  Maximum number of calculations  =          1000
  Maximum Hessian update interval =            10
  Maximum step size               =   1.000000000
  Maximum parameter tolerance     =   0.000010000
  Maximum function  tolerance     =   0.000010000
  Maximum gradient  tolerance     =   0.001000000
  Maximum gradient  component     =   0.010000000

  Symmetry not applied to optimisation

  Cell parameters to be optimised using strains

  Newton-Raphson optimiser to be used

  BFGS hessian update to be used

  Lower half triangular hessian to be used

  Start of bulk optimisation :

  Cycle:      0 Energy:       -85.992572  Gnorm:      8.922860  CPU:    0.013
  ** Hessian calculated **
  Cycle:      1 Energy:       -91.630693  Gnorm:      3.248521  CPU:    0.025
  ** Hessian calculated **
  Cycle:      2 Energy:       -93.407926  Gnorm:      0.241259  CPU:    0.044
  Cycle:      3 Energy:       -93.727483  Gnorm:      0.379189  CPU:    0.056
  Cycle:      4 Energy:       -93.872131  Gnorm:      0.419846  CPU:    0.066
  Cycle:      5 Energy:       -93.916106  Gnorm:      0.216759  CPU:    0.079
  Cycle:      6 Energy:       -93.955402  Gnorm:      0.236635  CPU:    0.091
  Cycle:      7 Energy:       -94.003608  Gnorm:      0.337075  CPU:    0.104
  Cycle:      8 Energy:       -94.063864  Gnorm:      0.300404  CPU:    0.117
  Cycle:      9 Energy:       -94.105073  Gnorm:      0.327302  CPU:    0.127
  Cycle:     10 Energy:       -94.152801  Gnorm:      0.172167  CPU:    0.141
  Cycle:     11 Energy:       -94.162078  Gnorm:      0.129678  CPU:    0.153
  ** Hessian calculated **
  Cycle:     12 Energy:       -94.184232  Gnorm:      0.042568  CPU:    0.171
  Cycle:     13 Energy:       -94.185870  Gnorm:      0.019064  CPU:    0.183
  Cycle:     14 Energy:       -94.186129  Gnorm:      0.004834  CPU:    0.194
  Cycle:     15 Energy:       -94.186171  Gnorm:      0.003759  CPU:    0.205


  **** Optimisation achieved ****


  Final energy =     -94.18617309 eV
  Final Gnorm  =       0.00026742

  Components of energy : 

--------------------------------------------------------------------------------
  Interatomic potentials     =          21.32396821 eV    
  Monopole - monopole (real) =          81.06426209 eV    
  Monopole - monopole (recip)=        -196.57440339 eV    
  Monopole - monopole (total)=        -115.51014130 eV    
--------------------------------------------------------------------------------
  Total lattice energy       =         -94.18617309 eV    
--------------------------------------------------------------------------------
  Total lattice energy       =           -9087.5259 kJ/(mole unit cells)
--------------------------------------------------------------------------------

  Final fractional coordinates of atoms :

--------------------------------------------------------------------------------
   No.  Atomic        x           y          z          Radius
        Label       (Frac)      (Frac)     (Frac)       (Angs) 
--------------------------------------------------------------------------------
     1  Sc    c     0.333900    0.333900    0.333900    0.000000
     2  Sc    c     0.667797    0.667813    0.667799    0.000000
     3  Cl    c     0.075682    0.445383    0.703391    0.000000
     4  Cl    c     0.297892    0.926501    0.556250    0.000000
     5  Cl    c     0.445899    0.703300    0.075286    0.000000
     6  Cl    c     0.555797    0.298410    0.926421    0.000000
     7  Cl    c     0.703804    0.075207    0.445450    0.000000
     8  Cl    c     0.926009    0.556319    0.298315    0.000000
     9  Cl    s     0.065947    0.452571    0.677260    0.000000
    10  Cl    s     0.324076    0.936176    0.549072    0.000000
    11  Cl    s     0.453018    0.677183    0.065599    0.000000
    12  Cl    s     0.548677    0.324526    0.936109    0.000000
    13  Cl    s     0.677621    0.065531    0.452629    0.000000
    14  Cl    s     0.935746    0.549133    0.324445    0.000000
--------------------------------------------------------------------------------

  Final Cartesian lattice vectors (Angstroms) :

        7.492716    0.017674    0.015750
        4.666685    5.870017    0.017236
        4.663123    2.258191    5.420142


  Final cell parameters and derivatives :

--------------------------------------------------------------------------------
       a            7.492753 Angstrom     dE/de1(xx)     0.001502 eV/strain
       b            7.499023 Angstrom     dE/de2(yy)     0.001130 eV/strain
       c            7.498139 Angstrom     dE/de3(zz)     0.001402 eV/strain
       alpha       51.360329 Degrees      dE/de4(yz)     0.000184 eV/strain
       beta        51.381576 Degrees      dE/de5(xz)     0.000594 eV/strain
       gamma       51.379896 Degrees      dE/de6(xy)     0.000958 eV/strain
--------------------------------------------------------------------------------

  Primitive cell volume =           237.388320 Angs**3

  Density of cell =      2.116870 g/cm**3

  Non-primitive cell volume =           237.388320 Angs**3


  Final internal derivatives :

--------------------------------------------------------------------------------
   No.  Atomic          a             b             c           Radius
        Label          (eV)          (eV)          (eV)        (eV/Angs)
--------------------------------------------------------------------------------
      1 Sc    c       0.000000      0.000000      0.000000      0.000000
      2 Sc    c       0.001681      0.001454      0.000124      0.000000
      3 Cl    c      -0.002719     -0.000640     -0.000937      0.000000
      4 Cl    c       0.000986      0.001285      0.000118      0.000000
      5 Cl    c       0.001446      0.000724      0.001502      0.000000
      6 Cl    c      -0.000978      0.000527     -0.000482      0.000000
      7 Cl    c      -0.001726     -0.001514     -0.000663      0.000000
      8 Cl    c       0.000842     -0.000977      0.000232      0.000000
      9 Cl    s       0.003561      0.001253      0.002922      0.000000
     10 Cl    s      -0.002865     -0.003016     -0.001029      0.000000
     11 Cl    s       0.001191      0.003381      0.002375      0.000000
     12 Cl    s      -0.001348     -0.004134     -0.001709      0.000000
     13 Cl    s       0.002463      0.001978      0.000726      0.000000
     14 Cl    s      -0.002693     -0.000158     -0.002951      0.000000
--------------------------------------------------------------------------------
  Maximum abs         0.003561      0.004134      0.002951      0.000000
--------------------------------------------------------------------------------

  Comparison of initial and final structures : 

--------------------------------------------------------------------------------
  Parameter   Initial value   Final value   Difference    Units      Percent
--------------------------------------------------------------------------------
    Volume       235.198534    237.388320     2.189785    Angs**3      0.93
    a              7.453000      7.492753     0.039753    Angstroms    0.53
    b              7.453000      7.499023     0.046023    Angstroms    0.62
    c              7.453000      7.498139     0.045139    Angstroms    0.61
    alpha         51.648000     51.360329    -0.287671    Degrees     -0.56
    beta          51.648000     51.381576    -0.266424    Degrees     -0.52
    gamma         51.648000     51.379896    -0.268104    Degrees     -0.52
      1 x          0.333900      0.333900     0.000000    Fractional   0.00
      1 y          0.333900      0.333900     0.000000    Fractional   0.00
      1 z          0.333900      0.333900     0.000000    Fractional   0.00
      2 x          0.666100      0.667797     0.001697    Fractional   0.25
      2 y          0.666100      0.667813     0.001713    Fractional   0.26
      2 z          0.666100      0.667799     0.001699    Fractional   0.25
      3 x          0.073700      0.075682     0.001982    Fractional   2.69
      3 y          0.443900      0.445383     0.001483    Fractional   0.33
      3 z          0.705300      0.703391     0.001909    Fractional   0.27
      4 x          0.294700      0.297892     0.003192    Fractional   1.08
      4 y          0.926300      0.926501     0.000201    Fractional   0.02
      4 z          0.556100      0.556250     0.000150    Fractional   0.03
      5 x          0.443900      0.445899     0.001999    Fractional   0.45
      5 y          0.705300      0.703300     0.002000    Fractional   0.28
      5 z          0.073700      0.075286     0.001586    Fractional   2.15
      6 x          0.556100      0.555797     0.000303    Fractional   0.05
      6 y          0.294700      0.298410     0.003710    Fractional   1.26
      6 z          0.926300      0.926421     0.000121    Fractional   0.01
      7 x          0.705300      0.703804     0.001496    Fractional   0.21
      7 y          0.073700      0.075207     0.001507    Fractional   2.04
      7 z          0.443900      0.445450     0.001550    Fractional   0.35
      8 x          0.926300      0.926009     0.000291    Fractional   0.03
      8 y          0.556100      0.556319     0.000219    Fractional   0.04
      8 z          0.294700      0.298315     0.003615    Fractional   1.23
      9 x          0.073700      0.065947     0.007753    Fractional  10.52
      9 y          0.443900      0.452571     0.008671    Fractional   1.95
      9 z          0.705300      0.677260     0.028040    Fractional   3.98
     10 x          0.294700      0.324076     0.029376    Fractional   9.97
     10 y          0.926300      0.936176     0.009876    Fractional   1.07
     10 z          0.556100      0.549072     0.007028    Fractional   1.26
     11 x          0.443900      0.453018     0.009118    Fractional   2.05
     11 y          0.705300      0.677183     0.028117    Fractional   3.99
     11 z          0.073700      0.065599     0.008101    Fractional  10.99
     12 x          0.556100      0.548677     0.007423    Fractional   1.33
     12 y          0.294700      0.324526     0.029826    Fractional  10.12
     12 z          0.926300      0.936109     0.009809    Fractional   1.06
     13 x          0.705300      0.677621     0.027679    Fractional   3.92
     13 y          0.073700      0.065531     0.008169    Fractional  11.08
     13 z          0.443900      0.452629     0.008729    Fractional   1.97
     14 x          0.926300      0.935746     0.009446    Fractional   1.02
     14 y          0.556100      0.549133     0.006967    Fractional   1.25
     14 z          0.294700      0.324445     0.029745    Fractional  10.09
--------------------------------------------------------------------------------


  Born effective charge tensors : 

-------------------------------------------------------------------------------
  Atom             x           y             z
-------------------------------------------------------------------------------
    1 Sc    x       2.2285     -0.2571     -0.1710
            y      -0.2560      2.6360     -0.0847
            z      -0.1727     -0.0813      2.7043
-------------------------------------------------------------------------------
    2 Sc    x       2.2285     -0.2571     -0.1710
            y      -0.2560      2.6360     -0.0846
            z      -0.1727     -0.0813      2.7044
-------------------------------------------------------------------------------
    3 Cl    x      -0.8062      0.2256      0.0411
            y       0.2160     -0.8834     -0.1927
            z       0.0553     -0.1841     -0.8334
-------------------------------------------------------------------------------
    4 Cl    x      -0.7835      0.1157      0.0049
            y       0.1062     -0.9970      0.2420
            z      -0.0106      0.2360     -0.7424
-------------------------------------------------------------------------------
    5 Cl    x      -0.6388     -0.0842      0.1250
            y      -0.0662     -0.7556      0.0353
            z       0.1280      0.0294     -1.1285
-------------------------------------------------------------------------------
    6 Cl    x      -0.6388     -0.0842      0.1250
            y      -0.0662     -0.7556      0.0353
            z       0.1280      0.0294     -1.1285
-------------------------------------------------------------------------------
    7 Cl    x      -0.7835      0.1157      0.0049
            y       0.1062     -0.9970      0.2420
            z      -0.0106      0.2360     -0.7424
-------------------------------------------------------------------------------
    8 Cl    x      -0.8062      0.2256      0.0411
            y       0.2160     -0.8834     -0.1927
            z       0.0553     -0.1841     -0.8334
-------------------------------------------------------------------------------




  Elastic Constant Matrix: (Units=GPa)

-------------------------------------------------------------------------------
  Indices      1         2         3         4         5         6    
-------------------------------------------------------------------------------
       1      3.6214    8.6385    8.0518    0.5781   -2.6064   -3.9922
       2      8.6385   31.8741   23.2528   -4.4482   -5.2569  -13.8933
       3      8.0518   23.2528   39.7403   -4.9820  -10.4619   -9.4746
       4      0.5781   -4.4482   -4.9820    7.0058   -1.6207    0.0048
       5     -2.6064   -5.2569  -10.4619   -1.6207    4.2787    3.1180
       6     -3.9922  -13.8933   -9.4746    0.0048    3.1180    6.9568
-------------------------------------------------------------------------------


  Elastic Compliance Matrix: (Units=1/GPa)

-------------------------------------------------------------------------------
  Indices      1         2         3         4         5         6    
-------------------------------------------------------------------------------
       1    4.139658 -2.323081 -1.150848 -3.167637 -2.310781 -2.793293
       2   -2.323081  2.746677 -0.244172  1.461210 -1.287173  4.395552
       3   -1.150848 -0.244172  1.480853  1.927327  4.035931 -0.941456
       4   -3.167637  1.461210  1.927327  3.842313  4.931639  1.512259
       5   -2.310781 -1.287173  4.035931  4.931639 11.609238 -3.606608
       6   -2.793293  4.395552 -0.941456  1.512259 -3.606608  7.652260
-------------------------------------------------------------------------------

  Mechanical properties :

-------------------------------------------------------------------------------
  Convention :                    Reuss         Voigt         Hill
-------------------------------------------------------------------------------
  Bulk  Modulus (GPa)     =       1.07413      17.23576       9.15495
  Shear Modulus (GPa)     =       0.12749       6.00110       3.06430
-------------------------------------------------------------------------------
  Velocity S-wave (km/s)  =       0.24541       1.68371       1.20315
  Velocity P-wave (km/s)  =       0.76663       3.45282       2.50097
-------------------------------------------------------------------------------
  Compressibility (1/GPa) =    0.93098656
-------------------------------------------------------------------------------
  Stress axis :                     x             y             z
-------------------------------------------------------------------------------
  Youngs Moduli (GPa)     =       0.24157       0.36408       0.67529
-------------------------------------------------------------------------------
  Poissons Ratio (x)      =                     0.84578       0.77715
  Poissons Ratio (y)      =       0.56118                     0.16489
  Poissons Ratio (z)      =       0.27801       0.08890
-------------------------------------------------------------------------------


  Piezoelectric Strain Matrix: (Units=C/m**2)

-------------------------------------------------------------------------------
  Indices      1         2         3         4         5         6    
-------------------------------------------------------------------------------
       x    -0.00008   0.00014   0.00001  -0.00009   0.00009  -0.00005
       y    -0.00004  -0.00012   0.00007   0.00004  -0.00006  -0.00002
       z    -0.00006  -0.00018  -0.00004  -0.00005   0.00002   0.00008
-------------------------------------------------------------------------------


  Piezoelectric Stress Matrix: (Units=10**-11 C/N)

-------------------------------------------------------------------------------
  Indices      1         2         3         4         5         6    
-------------------------------------------------------------------------------
       x    -0.04806   0.01066   0.03304   0.05336   0.08812  -0.00159
       y     0.01097  -0.01943   0.00109  -0.01104   0.00386  -0.03303
       z     0.00895  -0.00670  -0.00499  -0.01237  -0.01368  -0.00769
-------------------------------------------------------------------------------


  Static dielectric constant tensor : 

-------------------------------------------------------------------------------
              x         y         z
-------------------------------------------------------------------------------
       x     2.55749  -0.36997  -0.24788
       y    -0.36997   3.14505  -0.11962
       z    -0.24788  -0.11962   3.24356
--------------------------------------------------------------------------------

  High frequency dielectric constant tensor : 

-------------------------------------------------------------------------------
              x         y         z
-------------------------------------------------------------------------------
       x     1.82639  -0.04056  -0.02716
       y    -0.04056   1.89075  -0.01312
       z    -0.02716  -0.01312   1.90154
-------------------------------------------------------------------------------

  Static refractive indices : 

-------------------------------------------------------------------------------
    1 =    1.51614      2 =    1.82309      3 =    1.82312
-------------------------------------------------------------------------------

  High frequency refractive indices : 

-------------------------------------------------------------------------------
    1 =    1.34090      2 =    1.38214      3 =    1.38215
-------------------------------------------------------------------------------


  Time to end of optimisation =       0.2256 seconds

********************************************************************************
*  Defect calculation for configuration   1 :                                  *
********************************************************************************



!!!!!!!!!!!!!!!!!!!!!!!!!!!!!!!!!!!!!!!!!!!!!!!!!!!!!!!!!!!!!!!!!!!!!!!!!!!!!!!!
!! WARNING : Ambiguous vacancy specifier used
!!!!!!!!!!!!!!!!!!!!!!!!!!!!!!!!!!!!!!!!!!!!!!!!!!!!!!!!!!!!!!!!!!!!!!!!!!!!!!!!



!!!!!!!!!!!!!!!!!!!!!!!!!!!!!!!!!!!!!!!!!!!!!!!!!!!!!!!!!!!!!!!!!!!!!!!!!!!!!!!!
!! WARNING : Ambiguous vacancy specifier used
!!!!!!!!!!!!!!!!!!!!!!!!!!!!!!!!!!!!!!!!!!!!!!!!!!!!!!!!!!!!!!!!!!!!!!!!!!!!!!!!

  Total number of defects =      2

  Total charge on defect  =   1.00

  Defect centre is at   0.0737   0.4439   0.7053  Frac

  Region 1 radius =  13.0000      Number of ions =    546

  Region 2 radius =  24.0000      Number of ions =   2891

  Region 2a mode = 4 : screened electrostatics due to region 1 
                       neglect correction to region 1 forces from 2a
                       region 2a displacements based on defects only

  Region 2a ions will only interact with defects in region 1

  Vacancies:

--------------------------------------------------------------------------------
    Specification type     Symbol/Number         x          y          z
--------------------------------------------------------------------------------
    Atom                    Cl    core
    Atom                    Cl    shel
--------------------------------------------------------------------------------


  Components of defect energy : 

--------------------------------------------------------------------------------
  Region 1 - region 1                   =     15.86368671 eV
  Region 1 - region 2a (unrelaxed)      =     -6.32921224 eV
  Region 1 - 2a (relaxed - correction)  =     -0.33007756 eV
  Region 1 (Total)                      =      9.20439690 eV
  Region 2a                             =      0.16505718 eV
  Region 2b                             =     -0.19638630 eV
--------------------------------------------------------------------------------
  Total defect energy                   =      9.17306778 eV
--------------------------------------------------------------------------------

  Largest displacement in region 2 =   0.0111 Angstroms


  Number of variables =     1638

  Maximum number of calculations  =        1000
  Maximum Hessian update interval =          10
  Maximum step size               =   1.0000000
  Maximum parameter tolerance     =   0.0000100
  Maximum function  tolerance     =   0.0000100
  Maximum gradient  tolerance     =   0.0010000

  Symmetry adapted optimisation

  Newton-Raphson optimiser to be used

  BFGS hessian update to be used

  Lower half triangular hessian to be used

  Start of defect optimisation :

  Cycle:      0 Defect Energy:   9.173068  Gnorm:     0.010209  CPU:    6.235
  ** Hessian calculated **
  Cycle:      1 Defect Energy:   8.259858  Gnorm:     0.008532  CPU:   32.297
  Cycle:      2 Defect Energy:   7.115059  Gnorm:     0.005781  CPU:   53.287
  Cycle:      3 Defect Energy:   6.106070  Gnorm:     0.001528  CPU:   68.079
  Cycle:      4 Defect Energy:   6.023975  Gnorm:     0.001036  CPU:   71.314
  Cycle:      5 Defect Energy:   5.995077  Gnorm:     0.000862  CPU:   74.168
  Cycle:      6 Defect Energy:   5.914835  Gnorm:     0.000368  CPU:   76.824
  Cycle:      7 Defect Energy:   5.895420  Gnorm:     0.000274  CPU:   83.189
  Cycle:      8 Defect Energy:   5.884090  Gnorm:     0.000244  CPU:   86.386
  ** Hessian calculated **
  Cycle:      9 Defect Energy:   5.872532  Gnorm:     0.000172  CPU:   96.002
  Cycle:     10 Defect Energy:   5.866220  Gnorm:     0.000122  CPU:   98.939
  Cycle:     11 Defect Energy:   5.862451  Gnorm:     0.000087  CPU:  101.910
  Cycle:     12 Defect Energy:   5.860209  Gnorm:     0.000062  CPU:  104.881
  Cycle:     13 Defect Energy:   5.858908  Gnorm:     0.000045  CPU:  107.706
  Cycle:     14 Defect Energy:   5.858159  Gnorm:     0.000032  CPU:  110.414
  Cycle:     15 Defect Energy:   5.857724  Gnorm:     0.000023  CPU:  112.869
  Cycle:     16 Defect Energy:   5.857474  Gnorm:     0.000016  CPU:  120.081
  Cycle:     17 Defect Energy:   5.857346  Gnorm:     0.000012  CPU:  123.742
  Cycle:     18 Defect Energy:   5.857277  Gnorm:     0.000008  CPU:  127.169
  ** Hessian calculated **
  Cycle:     19 Defect Energy:   5.857241  Gnorm:     0.000006  CPU:  138.777
  Cycle:     20 Defect Energy:   5.857218  Gnorm:     0.000004  CPU:  141.852


  **** Optimisation achieved ****


  Final defect energy  =        5.85720874
  Final defect Gnorm   =        0.00000289

  Components of defect energy : 

--------------------------------------------------------------------------------
  Region 1 - region 1                   =     11.94817212 eV
  Region 1 - region 2a (unrelaxed)      =     -5.74379384 eV
  Region 1 - 2a (relaxed - correction)  =     -0.30117691 eV
  Region 1 (Total)                      =      5.90320137 eV
  Region 2a                             =      0.15055361 eV
  Region 2b                             =     -0.19654624 eV
--------------------------------------------------------------------------------
  Total defect energy                   =      5.85720874 eV
--------------------------------------------------------------------------------

  Largest displacement in region 2 =   0.0111 Angstroms

  Final coordinates of region 1 :

--------------------------------------------------------------------------------
   No.  Atomic        x           y           z          Radius      Charge
        Label       (Angs)      (Angs)      (Angs)       (Angs)       (e) 
--------------------------------------------------------------------------------
     1  Sc    c     3.289116    5.643037    3.782302    0.000000    3.000000
     2  Sc    c     5.629860    2.278850    1.536477    0.000000    3.000000
     3  Cl    c     3.917943    3.874306    2.224032    0.000000    1.485000
     4  Cl    c     4.202644    6.421179    5.920358    0.000000    1.485000
     5  Cl    c     7.681020    1.446040    2.593179    0.000000    1.485000
     6  Cl    c     6.862221    4.078761    0.384762    0.000000    1.485000
     7  Cl    c     4.635630    7.267282    2.506818    0.000000    1.485000
     8  Cl    c     2.181485    3.900557    5.119682    0.000000    1.485000
     9  Cl    c     4.476150    0.614522    2.931547    0.000000    1.485000
    10  Cl    c     9.837183    3.876679    5.026089    0.000000    1.485000
    11  Cl    c     4.821134    3.603520    7.818852    0.000000    1.485000
    12  Cl    c     9.142231    6.680630    3.016942    0.000000    1.485000
    13  Cl    c     6.868117    0.670665    5.866251    0.000000    1.485000
    14  Cl    c     8.090205    6.184953    7.051950    0.000000    1.485000
    15  Sc    c     2.745886    4.913124    7.396088    0.000000    3.000000
    16  Sc    c     6.593317   -0.575944    3.729844    0.000000    3.000000
    17  Cl    c     1.333900    6.803217    2.888041    0.000000    1.485000
    18  Cl    c     5.083027    1.445756   -0.693163    0.000000    1.485000
    19  Sc    c    11.241710    5.438376    3.639197    0.000000    3.000000
    20  Cl    c    10.911875    3.936290    1.654341    0.000000    1.485000
    21  Sc    c    10.285666    4.976807    7.246269    0.000000    3.000000
    22  Cl    c     3.391362    0.276662    7.063865    0.000000    1.485000
    23  Sc    c     2.653559    8.673355    1.723914    0.000000    3.000000
    24  Cl    c     9.140566    3.077735    8.415911    0.000000    1.485000
    25  Sc    c     6.530783    3.145428   -1.966240    0.000000    3.000000
    26  Cl    c     7.033845    9.708051    5.035096    0.000000    1.485000
    27  Sc    c     3.698063    1.727101    9.090437    0.000000    3.000000
    28  Sc    c     5.562582   -0.959899    7.296061    0.000000    3.000000
    29  Cl    c     1.606020    3.008167    8.508839    0.000000    1.485000
    30  Cl    c     5.182222   -2.107049    5.085259    0.000000    1.485000
    31  Cl    c     4.454191    4.437908   -2.435009    0.000000    1.485000
    32  Cl    c     2.345536    7.457538   -0.426074    0.000000    1.485000
    33  Cl    c     8.073550    9.782482    1.657001    0.000000    1.485000
    34  Cl    c     3.101684    6.450646    9.313333    0.000000    1.485000
    35  Cl    c     5.898380    0.551462    9.261594    0.000000    1.485000
    36  Cl    c     0.182678    1.445598    2.415155    0.000000    1.485000
    37  Cl    c     2.999446   10.000493    3.806949    0.000000    1.485000
    38  Cl    c     8.799899   -1.704026    3.866945    0.000000    1.485000
    39  Cl    c     0.653228    6.227167    7.056243    0.000000    1.485000
    40  Sc    c    10.276783    8.592972    1.832843    0.000000    3.000000
    41  Cl    c     6.331500   -1.897790    1.629244    0.000000    1.485000
    42  Cl    c     5.881330    7.778639   -1.576615    0.000000    1.485000
    43  Cl    c     8.661180    1.904258   -1.601003    0.000000    1.485000
    44  Cl    c    11.631504    6.559849    5.843278    0.000000    1.485000
    45  Cl    c     6.314306    8.921871    8.417217    0.000000    1.485000
    46  Cl    c     9.861241    7.468767   -0.369695    0.000000    1.485000
    47  Sc    c     8.406046    7.684058    9.052762    0.000000    3.000000
    48  Cl    c     7.041997    6.099154   10.437695    0.000000    1.485000
    49  Cl    c    11.975246    0.840400    3.027404    0.000000    1.485000
    50  Cl    c     4.144551   10.152102    0.394561    0.000000    1.485000
    51  Cl    c    10.917975    0.334730    7.042826    0.000000    1.485000
    52  Cl    c     7.684152    5.092108   -2.991257    0.000000    1.485000
    53  Cl    c    -0.512572    4.250002    0.416614    0.000000    1.485000
    54  Cl    c    12.355942    7.328632    2.438070    0.000000    1.485000
    55  Cl    c    -1.577259    4.181996    3.780898    0.000000    1.485000
    56  Cl    c     1.259986   -1.645964    3.784024    0.000000    1.485000
    57  Cl    c     1.241369    1.937743   -1.603848    0.000000    1.485000
    58  Cl    c    10.585949    6.461480    9.239543    0.000000    1.485000
    59  Cl    c    13.410989    4.210788    3.838635    0.000000    1.485000
    60  Cl    c    10.572637   10.060691    3.841331    0.000000    1.485000
    61  Sc    c     8.398170   11.295409    3.641000    0.000000    3.000000
    62  Cl    c    -0.531211    0.668039    5.806835    0.000000    1.485000
    63  Sc    c    13.114703    2.729346    1.832340    0.000000    3.000000
    64  Cl    c     2.295466   -1.569446    0.402860    0.000000    1.485000
    65  Sc    c     7.449649   10.833154    7.245177    0.000000    3.000000
    66  Cl    c    12.359410    3.704714    7.830727    0.000000    1.485000
    67  Cl    c     9.531204    9.562614    7.836299    0.000000    1.485000
    68  Cl    c     7.669673   -2.182585    7.838263    0.000000    1.485000
    69  Sc    c     3.731037    9.043975   -1.828692    0.000000    3.000000
    70  Cl    c     4.108930    2.910630   11.247165    0.000000    1.485000
    71  Sc    c     5.597409    6.355331   -3.623333    0.000000    3.000000
    72  Cl    c     2.057039    9.554946    7.828173    0.000000    1.485000
    73  Cl    c     9.805338   -1.534861    0.427454    0.000000    1.485000
    74  Sc    c    11.229018    1.818712    9.044310    0.000000    3.000000
    75  Sc    c     0.923192    7.712540    9.084362    0.000000    3.000000
    76  Sc    c     8.510671   -3.162440    1.820548    0.000000    3.000000
    77  Cl    c     0.506154    9.907550    1.576309    0.000000    1.485000
    78  Cl    c     6.276159    1.655298   -3.935600    0.000000    1.485000
    79  Sc    c    -1.919242    2.682685    1.794403    0.000000    3.000000
    80  Sc    c    -0.946250   -0.463277    3.608775    0.000000    3.000000
    81  Cl    c    12.690302    1.616917   -0.374035    0.000000    1.485000
    82  Cl    c     6.313622   12.545609    3.023485    0.000000    1.485000
    83  Cl    c     2.349065    0.166022   10.485458    0.000000    1.485000
    84  Cl    c     4.451499   -2.846183    8.480487    0.000000    1.485000
    85  Cl    c    -0.450697    9.685995    5.036448    0.000000    1.485000
    86  Cl    c     7.315112   -1.427126   -2.380696    0.000000    1.485000
    87  Cl    c     5.260145   12.037326    7.053677    0.000000    1.485000
    88  Cl    c     9.856309    0.246312   10.433573    0.000000    1.485000
    89  Sc    c     0.849508   11.315292    3.647320    0.000000    3.000000
    90  Sc    c     8.456123    0.416105   -3.632692    0.000000    3.000000
    91  Cl    c     3.403937    7.544723   -3.806660    0.000000    1.485000
    92  Cl    c    11.975048    4.451432   -2.372829    0.000000    1.485000
    93  Sc    c    -0.948324    3.153257   -1.806643    0.000000    3.000000
    94  Cl    c     0.202918    5.049567   -2.973168    0.000000    1.485000
    95  Cl    c     3.023225   -0.791999   -2.975118    0.000000    1.485000
    96  Cl    c     8.801971   12.412903    5.845508    0.000000    1.485000
    97  Cl    c    11.624130   10.177551    0.440988    0.000000    1.485000
    98  Cl    c     8.091812    2.586808   12.446524    0.000000    1.485000
    99  Sc    c     0.938903   -3.160469    1.801464    0.000000    3.000000
   100  Sc    c    11.233080    9.052588   -1.768264    0.000000    3.000000
   101  Cl    c    -2.625210    7.281405    2.410992    0.000000    1.485000
   102  Cl    c     3.029965   -4.399263    2.417730    0.000000    1.485000
   103  Cl    c     8.803051    8.808515   11.251158    0.000000    1.485000
   104  Cl    c    14.450292    4.326095    0.439978    0.000000    1.485000
   105  Cl    c    12.689999   -1.994240    5.029103    0.000000    1.485000
   106  Cl    c     9.148078   10.310036   -2.371534    0.000000    1.485000
   107  Cl    c    -0.412369    6.087061   10.434825    0.000000    1.485000
   108  Cl    c     7.337965   -5.006165    3.031808    0.000000    1.485000
   109  Sc    c    14.067564   -0.419245    3.641260    0.000000    3.000000
   110  Cl    c    -2.624127    3.678042    7.808636    0.000000    1.485000
   111  Cl    c     0.198983   -2.168569    7.809637    0.000000    1.485000
   112  Sc    c    13.110309   -0.882374    7.240384    0.000000    3.000000
   113  Sc    c     7.452035    7.220855   12.653679    0.000000    3.000000
   114  Cl    c    11.619732    2.956711   11.239305    0.000000    1.485000
   115  Cl    c    14.451358    0.714493    5.843472    0.000000    1.485000
   116  Sc    c    -0.040408   10.821674    7.243654    0.000000    3.000000
   117  Sc    c     9.410920   -2.684558   -1.777131    0.000000    3.000000
   118  Cl    c    -3.030199    0.793362    2.998747    0.000000    1.485000
   119  Cl    c    -2.305962    1.569325   -0.413288    0.000000    1.485000
   120  Cl    c     1.324885   12.397180    5.848943    0.000000    1.485000
   121  Cl    c    10.542343   -0.788345   -2.964221    0.000000    1.485000
   122  Cl    c     6.964902    7.934134   -4.986928    0.000000    1.485000
   123  Cl    c     4.879375   10.921544   -2.999121    0.000000    1.485000
   124  Cl    c     5.269111    8.436550   12.448863    0.000000    1.485000
   125  Cl    c    -1.166070    8.928006    8.438423    0.000000    1.485000
   126  Cl    c    -1.240402   -1.934158    1.601782    0.000000    1.485000
   127  Sc    c     0.933017    0.446447   -3.611756    0.000000    3.000000
   128  Cl    c     8.053728   -4.261955   -0.378134    0.000000    1.485000
   129  Cl    c     1.650002   10.306387   -2.384335    0.000000    1.485000
   130  Cl    c     5.222071    5.198538   -5.802022    0.000000    1.485000
   131  Cl    c    10.913371    7.550964   -3.753208    0.000000    1.485000
   132  Sc    c    -3.774413    5.400569    3.608251    0.000000    3.000000
   133  Cl    c    -3.340411    6.513369    5.811780    0.000000    1.485000
   134  Sc    c     1.886909   -2.703132   -1.805019    0.000000    3.000000
   135  Sc    c     2.763223    1.332164   12.680893    0.000000    3.000000
   136  Sc    c     6.566692   -4.092749    9.056727    0.000000    3.000000
   137  Cl    c     2.300007    2.037860   -4.986231    0.000000    1.485000
   138  Cl    c    15.193643    1.474216    2.441477    0.000000    1.485000
   139  Cl    c     9.532503   13.171215    2.435309    0.000000    1.485000
   140  Cl    c     1.326646    8.813959   11.282537    0.000000    1.485000
   141  Cl    c    10.575047   -4.416178    2.438546    0.000000    1.485000
   142  Cl    c     2.031589   13.154736    2.437567    0.000000    1.485000
   143  Cl    c     9.795850    2.044920   -4.976605    0.000000    1.485000
   144  Cl    c    -1.567513    0.582533    9.196312    0.000000    1.485000
   145  Sc    c    -1.892311   -0.918980    7.212524    0.000000    3.000000
   146  Cl    c    -1.567562    7.791921   -1.595907    0.000000    1.485000
   147  Cl    c    13.411315    0.607627    9.236830    0.000000    1.485000
   148  Cl    c     4.078045   -3.901654   -1.603910    0.000000    1.485000
   149  Cl    c     7.754284   12.304184    9.247336    0.000000    1.485000
   150  Cl    c    13.404947    7.822673   -1.557614    0.000000    1.485000
   151  Sc    c    14.066167    3.195084   -1.768778    0.000000    3.000000
   152  Cl    c     6.316765    5.323206   13.834046    0.000000    1.485000
   153  Cl    c     7.048895   13.322525   -0.367398    0.000000    1.485000
   154  Cl    c    13.754489   -1.897694    1.639326    0.000000    1.485000
   155  Cl    c    -4.085188    3.916327    1.605337    0.000000    1.485000
   156  Sc    c    10.275299    1.365587   12.645296    0.000000    3.000000
   157  Cl    c     2.302684   -5.177453    5.812702    0.000000    1.485000
   158  Cl    c     0.596650    2.564860   12.442924    0.000000    1.485000
   159  Cl    c     6.257481   -5.535448    7.031773    0.000000    1.485000
   160  Cl    c     9.534529    5.955973   13.242695    0.000000    1.485000
   161  Cl    c     4.860952    0.084274   13.239680    0.000000    1.485000
   162  Cl    c    11.973366   -2.767304    8.437402    0.000000    1.485000
   163  Cl    c    13.813981    8.955476    8.450301    0.000000    1.485000
   164  Cl    c     2.046487    5.932597   13.236305    0.000000    1.485000
   165  Cl    c    14.540360    9.729015    5.051739    0.000000    1.485000
   166  Cl    c     6.962434   -2.926168   11.234999    0.000000    1.485000
   167  Cl    c     4.216497   11.947822   10.442493    0.000000    1.485000
   168  Cl    c     9.792958   -5.155017    5.836654    0.000000    1.485000
   169  Cl    c    -2.289425   -2.046674    5.004959    0.000000    1.485000
   170  Cl    c    -0.195031   -1.435485   -2.402227    0.000000    1.485000
   171  Cl    c    15.588590    6.210704    7.065532    0.000000    1.485000
   172  Sc    c    13.110774    6.346950   -3.568105    0.000000    3.000000
   173  Sc    c     7.453199   14.449637    1.837126    0.000000    3.000000
   174  Sc    c     5.574140   13.535430    9.052130    0.000000    3.000000
   175  Cl    c    -1.246092    1.670098   -3.801796    0.000000    1.485000
   176  Cl    c    -3.019051    4.428161   -2.395345    0.000000    1.485000
   177  Cl    c     0.536017   -4.280490   -0.402010    0.000000    1.485000
   178  Sc    c     8.405026    4.068897   14.452384    0.000000    3.000000
   179  Cl    c    12.762294   12.062459    7.067919    0.000000    1.485000
   180  Sc    c    -1.881120    6.315134   -3.601477    0.000000    3.000000
   181  Cl    c    -1.211263   12.581079    3.042824    0.000000    1.485000
   182  Cl    c     8.068106   -0.692533   -5.830298    0.000000    1.485000
   183  Sc    c    -0.036362    7.203003   12.660551    0.000000    3.000000
   184  Cl    c    14.536154    6.117836   10.454883    0.000000    1.485000
   185  Sc    c     9.412761   -6.299580    3.640895    0.000000    3.000000
   186  Cl    c    16.645009    6.717163    3.048839    0.000000    1.485000
   187  Cl    c    -5.111297    3.808804    5.004864    0.000000    1.485000
   188  Cl    c    -0.186349   -5.037900    3.011573    0.000000    1.485000
   189  Sc    c    -4.713693    4.938531    7.212110    0.000000    3.000000
   190  Cl    c    -4.065701    0.309955    7.007601    0.000000    1.485000
   191  Cl    c    13.754428    1.708140   -3.763318    0.000000    1.485000
   192  Sc    c    -3.762090    1.789858    9.013626    0.000000    3.000000
   193  Sc    c     1.899856   -6.305581    3.609874    0.000000    3.000000
   194  Cl    c     3.091404    2.841017   14.647544    0.000000    1.485000
   195  Cl    c     0.271960   12.293112    9.240252    0.000000    1.485000
   196  Cl    c     8.762278   -5.273966    9.226706    0.000000    1.485000
   197  Cl    c     3.099609   13.654348   -1.574002    0.000000    1.485000
   198  Cl    c    11.585802   -3.896961   -1.573245    0.000000    1.485000
   199  Cl    c     8.749956    5.569047   -6.974737    0.000000    1.485000
   200  Sc    c     2.790588   12.199447   -3.590774    0.000000    3.000000
   201  Sc    c     6.578645    6.797038   -7.199435    0.000000    3.000000
   202  Cl    c    15.590522    9.820646    1.664583    0.000000    1.485000
   203  Cl    c    -3.333415   10.127496    0.415531    0.000000    1.485000
   204  Cl    c    -0.506921    7.893062   -4.985093    0.000000    1.485000
   205  Cl    c    17.364267    3.877849    5.050417    0.000000    1.485000
   206  Cl    c     9.139218   -0.524247   13.837001    0.000000    1.485000
   207  Cl    c    13.816413   12.564882    3.048124    0.000000    1.485000
   208  Cl    c    15.193211    5.090594   -2.956891    0.000000    1.485000
   209  Cl    c    12.367868   10.938654   -2.959283    0.000000    1.485000
   210  Cl    c     4.227806   15.557811    5.036494    0.000000    1.485000
   211  Sc    c    -4.710705    8.553615    1.802618    0.000000    3.000000
   212  Cl    c     3.434130   -3.279459   12.430688    0.000000    1.485000
   213  Cl    c     5.266283   15.659025    1.649502    0.000000    1.485000
   214  Sc    c     0.903237    4.052400   14.444774    0.000000    3.000000
   215  Sc    c    14.951096   10.850325    7.259784    0.000000    3.000000
   216  Cl    c    16.637709    3.104480    8.447709    0.000000    1.485000
   217  Sc    c     8.443727   -6.755871    7.224956    0.000000    3.000000
   218  Cl    c    -2.217756   12.031030    7.026895    0.000000    1.485000
   219  Cl    c     9.089053   -4.148477   -3.779992    0.000000    1.485000
   220  Cl    c    11.711796   11.966780   10.454199    0.000000    1.485000
   221  Sc    c    10.288075   12.207926   -3.566227    0.000000    3.000000
   222  Sc    c    15.901675    7.699875    9.063747    0.000000    3.000000
   223  Cl    c     3.489856   14.786162    8.432093    0.000000    1.485000
   224  Cl    c    12.702975    5.224294   -5.771955    0.000000    1.485000
   225  Cl    c    12.759338    8.451292   12.466171    0.000000    1.485000
   226  Cl    c    -4.388772    6.430858    9.200085    0.000000    1.485000
   227  Cl    c    -4.389774   10.032690    3.802631    0.000000    1.485000
   228  Cl    c     1.260487   -5.270835    9.198202    0.000000    1.485000
   229  Cl    c     5.207728   -5.660847   10.447852    0.000000    1.485000
   230  Cl    c     1.639894   -0.558362   13.863059    0.000000    1.485000
   231  Cl    c    10.588760    2.853641   14.638567    0.000000    1.485000
   232  Cl    c     7.760881    8.705863   14.646369    0.000000    1.485000
   233  Cl    c     4.090633   -7.508490    3.798177    0.000000    1.485000
   234  Cl    c    16.246172   -1.633468    3.837225    0.000000    1.485000
   235  Cl    c     1.264183    5.554834   -6.995689    0.000000    1.485000
   236  Cl    c    16.242711    1.976527   -1.563433    0.000000    1.485000
   237  Cl    c    -0.423967   13.290648   -0.374378    0.000000    1.485000
   238  Cl    c     4.086660   -0.293608   -6.997406    0.000000    1.485000
   239  Cl    c     7.760105   15.917591    3.844348    0.000000    1.485000
   240  Cl    c     7.319557    2.206469   -7.771796    0.000000    1.485000
   241  Cl    c    10.590733   13.679254   -1.557644    0.000000    1.485000
   242  Sc    c    -0.931545   -4.066741    9.012448    0.000000    3.000000
   243  Cl    c    -3.344506    2.913777   11.213538    0.000000    1.485000
   244  Cl    c    15.191593   -2.137297    7.841890    0.000000    1.485000
   245  Cl    c     5.130194   -3.801050   -4.990469    0.000000    1.485000
   246  Cl    c     6.709912   15.411335    7.841594    0.000000    1.485000
   247  Sc    c    -0.040677   14.442856    1.819208    0.000000    3.000000
   248  Sc    c     9.407963    0.939287   -7.202068    0.000000    3.000000
   249  Cl    c    -5.847110    6.665525    3.001732    0.000000    1.485000
   250  Cl    c     0.545474   -0.671573   -5.814513    0.000000    1.485000
   251  Sc    c     5.576486    9.925797   14.453823    0.000000    3.000000
   252  Cl    c    -0.524064   -2.934587   11.210953    0.000000    1.485000
   253  Cl    c     1.590968   -4.177075   -3.805289    0.000000    1.485000
   254  Cl    c    12.357007    0.104638   13.237687    0.000000    1.485000
   255  Cl    c     5.129061   -7.410567    0.408584    0.000000    1.485000
   256  Cl    c     6.708509   11.807855   13.244444    0.000000    1.485000
   257  Cl    c     8.097108   13.414230   -3.752099    0.000000    1.485000
   258  Sc    c    -3.755040    9.016461   -1.795267    0.000000    3.000000
   259  Sc    c     1.902792    0.920728   -7.205900    0.000000    3.000000
   260  Cl    c     7.040962    2.485627   15.836883    0.000000    1.485000
   261  Cl    c    14.804950   -1.386970   -2.366318    0.000000    1.485000
   262  Cl    c    -3.017933   -2.805206    8.409024    0.000000    1.485000
   263  Cl    c    -5.101564    7.422901   -0.399927    0.000000    1.485000
   264  Sc    c    15.906281   11.312872    3.659534    0.000000    3.000000
   265  Cl    c    -1.179613    5.305489   13.824976    0.000000    1.485000
   266  Cl    c     8.030215   -7.869603    5.017370    0.000000    1.485000
   267  Sc    c     3.777053   -5.397918   -3.605376    0.000000    3.000000
   268  Cl    c     4.490638    8.054639   -7.775286    0.000000    1.485000
   269  Cl    c     2.398400   11.051521   -5.780365    0.000000    1.485000
   270  Sc    c     8.414199   14.910505   -1.760503    0.000000    3.000000
   271  Sc    c    17.778530    4.996988    7.258287    0.000000    3.000000
   272  Sc    c     3.739284   -1.812953   14.444459    0.000000    3.000000
   273  Sc    c     5.610173   -4.508602   12.643667    0.000000    3.000000
   274  Cl    c     3.490012   11.176062   13.834663    0.000000    1.485000
   275  Cl    c    10.920017   -3.260819   12.441237    0.000000    1.485000
   276  Cl    c     9.882158   11.076635   -5.765433    0.000000    1.485000
   277  Cl    c    -1.233927   -5.538925    7.004561    0.000000    1.485000
   278  Sc    c     0.943147   -6.769095    7.208374    0.000000    3.000000
   279  Sc    c    15.944648   -3.118649    1.833286    0.000000    3.000000
   280  Cl    c    -2.210240    8.421159   12.426127    0.000000    1.485000
   281  Sc    c     4.624746   13.075398   12.652011    0.000000    3.000000
   282  Cl    c     9.090855   -7.749419    1.624308    0.000000    1.485000
   283  Cl    c    17.365708    7.487521   -0.350833    0.000000    1.485000
   284  Cl    c     3.043576    2.821688   -8.375130    0.000000    1.485000
   285  Cl    c    10.986946   14.803295    8.449101    0.000000    1.485000
   286  Cl    c     8.816712   16.027489    0.448155    0.000000    1.485000
   287  Cl    c    -5.843141    3.049394    8.405701    0.000000    1.485000
   288  Cl    c    -2.266682    5.182042   -5.799297    0.000000    1.485000
   289  Sc    c    14.062966   -4.028949    9.048189    0.000000    3.000000
   290  Cl    c    18.413518    3.969983    1.662533    0.000000    1.485000
   291  Sc    c    17.782085    8.609924    1.854229    0.000000    3.000000
   292  Cl    c    13.807989    5.342914   13.848073    0.000000    1.485000
   293  Cl    c    -2.611735   10.902313   -2.983661    0.000000    1.485000
   294  Cl    c     4.219562    8.335252   15.838241    0.000000    1.485000
   295  Cl    c     5.864657   -6.637998   -2.980425    0.000000    1.485000
   296  Cl    c    14.800473   -4.998418    3.034268    0.000000    1.485000
   297  Cl    c     5.982389   14.656182   11.252868    0.000000    1.485000
   298  Cl    c    14.457006    7.938100   -4.956110    0.000000    1.485000
   299  Cl    c    11.714796   15.575096    5.053080    0.000000    1.485000
   300  Sc    c    18.732717    5.459073    3.658487    0.000000    3.000000
   301  Cl    c    13.747965   -5.502025    7.041552    0.000000    1.485000
   302  Sc    c    13.076291   13.554514    9.065764    0.000000    3.000000
   303  Cl    c     1.596676   -7.772368    1.602267    0.000000    1.485000
   304  Sc    c     5.582757   17.153293    3.646743    0.000000    3.000000
   305  Cl    c    -5.174455   -1.585117    0.396269    0.000000    1.485000
   306  Cl    c     0.267831    8.685107   14.650397    0.000000    1.485000
   307  Cl    c    -4.060089    7.531198   -3.794035    0.000000    1.485000
   308  Cl    c     5.927830   -3.017307   14.633320    0.000000    1.485000
   309  Sc    c    14.948682    7.238334   12.664825    0.000000    3.000000
   310  Cl    c     0.276984   15.906506    3.825540    0.000000    1.485000
   311  Cl    c    17.032350    9.586310    7.860600    0.000000    1.485000
   312  Cl    c    11.588252   -7.513365    3.829875    0.000000    1.485000
   313  Sc    c    15.947722    0.494286   -3.571818    0.000000    3.000000
   314  Cl    s     4.010414    3.888859    2.298021    0.000000   -2.485000
   315  Cl    s     4.049809    6.270096    5.836366    0.000000   -2.485000
   316  Cl    s     7.455981    1.397193    2.579066    0.000000   -2.485000
   317  Cl    s     4.421794    7.223209    2.556737    0.000000   -2.485000
   318  Cl    s     6.748866    3.891667    0.337358    0.000000   -2.485000
   319  Cl    s     2.301910    4.091686    5.148774    0.000000   -2.485000
   320  Cl    s     4.687173    0.675744    2.872277    0.000000   -2.485000
   321  Cl    s     4.610183    3.577775    7.862180    0.000000   -2.485000
   322  Cl    s     6.766555    0.489367    5.804107    0.000000   -2.485000
   323  Cl    s     9.948470    4.044019    5.076141    0.000000   -2.485000
   324  Cl    s     9.339807    6.718795    2.981592    0.000000   -2.485000
   325  Cl    s     8.245784    6.199905    7.186520    0.000000   -2.485000
   326  Cl    s     1.566560    6.813507    2.893494    0.000000   -2.485000
   327  Cl    s     5.206844    1.609692   -0.583733    0.000000   -2.485000
   328  Cl    s    11.068234    3.955733    1.793157    0.000000   -2.485000
   329  Cl    s     3.552526    0.292786    7.206719    0.000000   -2.485000
   330  Cl    s     9.344552    3.121124    8.377890    0.000000   -2.485000
   331  Cl    s     7.144723    9.877619    5.085845    0.000000   -2.485000
   332  Cl    s     1.818520    3.061119    8.465665    0.000000   -2.485000
   333  Cl    s     5.304573   -1.925675    5.129552    0.000000   -2.485000
   334  Cl    s    11.516623    6.382509    5.789233    0.000000   -2.485000
   335  Cl    s     2.453658    7.634773   -0.361935    0.000000   -2.485000
   336  Cl    s     4.666405    4.467218   -2.471176    0.000000   -2.485000
   337  Cl    s     5.729610    0.530370    9.118336    0.000000   -2.485000
   338  Cl    s     8.233710    9.799763    1.794324    0.000000   -2.485000
   339  Cl    s     2.942430    6.420654    9.162681    0.000000   -2.485000
   340  Cl    s     8.626018   -1.712906    3.730396    0.000000   -2.485000
   341  Cl    s     0.815948    6.231159    7.198031    0.000000   -2.485000
   342  Cl    s     6.484154   -1.879214    1.780658    0.000000   -2.485000
   343  Cl    s     2.842018    9.986545    3.657314    0.000000   -2.485000
   344  Cl    s     8.500041    1.895429   -1.747216    0.000000   -2.485000
   345  Cl    s     5.722019    7.766301   -1.723330    0.000000   -2.485000
   346  Cl    s     6.519048    8.962735    8.381332    0.000000   -2.485000
   347  Cl    s    -0.015625    1.407105    2.451040    0.000000   -2.485000
   348  Cl    s     9.972036    7.639619   -0.314728    0.000000   -2.485000
   349  Cl    s     4.014644    9.976763    0.346630    0.000000   -2.485000
   350  Cl    s     7.470528    5.035862   -2.957892    0.000000   -2.485000
   351  Cl    s     7.154543    6.271847   10.486194    0.000000   -2.485000
   352  Cl    s    12.145586    7.285224    2.477918    0.000000   -2.485000
   353  Cl    s    12.177733    0.882813    2.988725    0.000000   -2.485000
   354  Cl    s    11.074877    0.352998    7.182516    0.000000   -2.485000
   355  Cl    s    10.422931    6.443035    9.095434    0.000000   -2.485000
   356  Cl    s    13.246604    4.196380    3.696086    0.000000   -2.485000
   357  Cl    s    10.411138   10.043495    3.696737    0.000000   -2.485000
   358  Cl    s    -0.623488    4.082226    0.365980    0.000000   -2.485000
   359  Cl    s    12.148511    3.667179    7.869277    0.000000   -2.485000
   360  Cl    s     9.321894    9.520972    7.876809    0.000000   -2.485000
   361  Cl    s     1.099509   -1.663850    3.646530    0.000000   -2.485000
   362  Cl    s    -1.732599    4.164304    3.642517    0.000000   -2.485000
   363  Cl    s     1.086372    1.923466   -1.739004    0.000000   -2.485000
   364  Cl    s     7.458282   -2.219360    7.875792    0.000000   -2.485000
   365  Cl    s     3.996231    2.733372   11.189181    0.000000   -2.485000
   366  Cl    s    -0.641472    0.496392    5.752215    0.000000   -2.485000
   367  Cl    s     1.850447    9.510740    7.872116    0.000000   -2.485000
   368  Cl    s     2.186344   -1.738308    0.352680    0.000000   -2.485000
   369  Cl    s     9.692641   -1.712762    0.380431    0.000000   -2.485000
   370  Cl    s     0.679261    9.905937    1.715065    0.000000   -2.485000
   371  Cl    s     6.428638    1.683341   -3.776939    0.000000   -2.485000
   372  Cl    s     2.467734    0.346140   10.526665    0.000000   -2.485000
   373  Cl    s     4.659756   -2.793647    8.434703    0.000000   -2.485000
   374  Cl    s    12.803229    1.789344   -0.319373    0.000000   -2.485000
   375  Cl    s     6.519638   12.583491    2.987914    0.000000   -2.485000
   376  Cl    s     3.570940    7.564075   -3.662479    0.000000   -2.485000
   377  Cl    s    -0.337178    9.862430    5.084894    0.000000   -2.485000
   378  Cl    s     7.521825   -1.383338   -2.422420    0.000000   -2.485000
   379  Cl    s     5.421452   12.052336    7.191719    0.000000   -2.485000
   380  Cl    s     9.970994    0.419970   10.483392    0.000000   -2.485000
   381  Cl    s     8.686480   12.235825    5.791882    0.000000   -2.485000
   382  Cl    s    11.508968    9.999873    0.390137    0.000000   -2.485000
   383  Cl    s    12.179146    4.491873   -2.410257    0.000000   -2.485000
   384  Cl    s     2.817933   -0.832849   -2.939210    0.000000   -2.485000
   385  Cl    s    -0.001739    5.006523   -2.935436    0.000000   -2.485000
   386  Cl    s     8.689391    8.631866   11.194972    0.000000   -2.485000
   387  Cl    s    14.336534    4.148535    0.389275    0.000000   -2.485000
   388  Cl    s     8.251585    2.602690   12.586105    0.000000   -2.485000
   389  Cl    s    12.804006   -1.820940    5.081462    0.000000   -2.485000
   390  Cl    s     2.823918   -4.437741    2.453662    0.000000   -2.485000
   391  Cl    s    -0.298107    6.264244   10.483853    0.000000   -2.485000
   392  Cl    s    -2.828406    7.239978    2.450189    0.000000   -2.485000
   393  Cl    s     7.545838   -4.962090    2.990190    0.000000   -2.485000
   394  Cl    s    11.506978    2.780136   11.184243    0.000000   -2.485000
   395  Cl    s    -2.820373    0.837617    2.958596    0.000000   -2.485000
   396  Cl    s    14.338554    0.537744    5.789892    0.000000   -2.485000
   397  Cl    s     9.353841   10.347874   -2.407838    0.000000   -2.485000
   398  Cl    s    -2.191167    1.745859   -0.357720    0.000000   -2.485000
   399  Cl    s     1.204686   12.221137    5.792498    0.000000   -2.485000
   400  Cl    s    10.328694   -0.831316   -2.930351    0.000000   -2.485000
   401  Cl    s    -1.078931   -1.916319    1.745949    0.000000   -2.485000
   402  Cl    s    -0.953403    8.970736    8.402181    0.000000   -2.485000
   403  Cl    s     8.172163   -4.084847   -0.323008    0.000000   -2.485000
   404  Cl    s    14.982926    1.433970    2.479001    0.000000   -2.485000
   405  Cl    s     6.847292    7.755003   -5.033718    0.000000   -2.485000
   406  Cl    s     4.669583   10.873488   -2.956540    0.000000   -2.485000
   407  Cl    s    -0.006760   -2.206961    7.846778    0.000000   -2.485000
   408  Cl    s    -2.828622    3.638498    7.846855    0.000000   -2.485000
   409  Cl    s     1.862190   10.340391   -2.421018    0.000000   -2.485000
   410  Cl    s     5.333448    5.375883   -5.741353    0.000000   -2.485000
   411  Cl    s     9.323772   13.128332    2.476273    0.000000   -2.485000
   412  Cl    s    11.073185    7.570014   -3.612653    0.000000   -2.485000
   413  Cl    s    13.247566    0.590834    9.094496    0.000000   -2.485000
   414  Cl    s     5.429501    8.451428   12.587798    0.000000   -2.485000
   415  Cl    s     1.213742    8.637266   11.218435    0.000000   -2.485000
   416  Cl    s    10.360926   -4.448928    2.472265    0.000000   -2.485000
   417  Cl    s     7.593436   12.285581    9.102561    0.000000   -2.485000
   418  Cl    s    -3.454177    6.340764    5.757335    0.000000   -2.485000
   419  Cl    s    13.242801    7.807591   -1.700421    0.000000   -2.485000
   420  Cl    s     2.187737    1.864682   -5.036024    0.000000   -2.485000
   421  Cl    s     1.822407   13.111601    2.478203    0.000000   -2.485000
   422  Cl    s     9.680752    1.867639   -5.027604    0.000000   -2.485000
   423  Cl    s    -1.728070    0.563794    9.055631    0.000000   -2.485000
   424  Cl    s    -3.920103    3.929941    1.746709    0.000000   -2.485000
   425  Cl    s     3.916935   -3.916860   -1.742917    0.000000   -2.485000
   426  Cl    s     6.523611    5.366035   13.795819    0.000000   -2.485000
   427  Cl    s    -1.724783    7.774402   -1.736279    0.000000   -2.485000
   428  Cl    s    -2.174218   -1.868770    5.054828    0.000000   -2.485000
   429  Cl    s     9.325348    5.916375   13.281385    0.000000   -2.485000
   430  Cl    s     7.160855   13.494813   -0.313442    0.000000   -2.485000
   431  Cl    s    13.912408   -1.879363    1.781043    0.000000   -2.485000
   432  Cl    s     0.014016   -1.393644   -2.441827    0.000000   -2.485000
   433  Cl    s     0.758876    2.579901   12.585169    0.000000   -2.485000
   434  Cl    s     6.418126   -5.518041    7.175588    0.000000   -2.485000
   435  Cl    s     4.651324    0.044643   13.278676    0.000000   -2.485000
   436  Cl    s     6.849277   -3.103037   11.180692    0.000000   -2.485000
   437  Cl    s    12.178996   -2.724184    8.397716    0.000000   -2.485000
   438  Cl    s     1.837317    5.893890   13.274938    0.000000   -2.485000
   439  Cl    s     2.191078   -5.350121    5.758237    0.000000   -2.485000
   440  Cl    s     9.680496   -5.331291    5.781696    0.000000   -2.485000
   441  Cl    s     4.329508   12.120931   10.492576    0.000000   -2.485000
   442  Cl    s    14.019843    8.996394    8.412535    0.000000   -2.485000
   443  Cl    s    14.653117    9.901911    5.104304    0.000000   -2.485000
   444  Cl    s    -1.083591    1.688177   -3.657433    0.000000   -2.485000
   445  Cl    s    15.748012    6.228005    7.205680    0.000000   -2.485000
   446  Cl    s     0.651259   -4.103179   -0.348887    0.000000   -2.485000
   447  Cl    s    -2.808199    4.465169   -2.432979    0.000000   -2.485000
   448  Cl    s    -0.996750   12.612044    3.006539    0.000000   -2.485000
   449  Cl    s     8.178723   -0.513679   -5.766507    0.000000   -2.485000
   450  Cl    s     0.022222   -4.993819    2.970027    0.000000   -2.485000
   451  Cl    s    -4.996626    3.985856    5.054928    0.000000   -2.485000
   452  Cl    s    -3.903077    0.325481    7.149525    0.000000   -2.485000
   453  Cl    s    12.922590   12.079060    7.207598    0.000000   -2.485000
   454  Cl    s     2.928088    2.819385   14.502857    0.000000   -2.485000
   455  Cl    s     8.595197   -5.290177    9.085655    0.000000   -2.485000
   456  Cl    s    14.649476    6.291090   10.506357    0.000000   -2.485000
   457  Cl    s    13.913289    1.727294   -3.621199    0.000000   -2.485000
   458  Cl    s     0.111505   12.272009    9.093645    0.000000   -2.485000
   459  Cl    s    16.850542    6.757923    3.010930    0.000000   -2.485000
   460  Cl    s    11.419608   -3.909697   -1.714326    0.000000   -2.485000
   461  Cl    s    14.983182    5.048026   -2.918694    0.000000   -2.485000
   462  Cl    s     2.939623   13.636609   -1.717909    0.000000   -2.485000
   463  Cl    s     8.587785    5.554524   -7.116480    0.000000   -2.485000
   464  Cl    s    12.158371   10.895668   -2.919750    0.000000   -2.485000
   465  Cl    s    15.750480    9.838269    1.804805    0.000000   -2.485000
   466  Cl    s    -3.448221    9.953685    0.363112    0.000000   -2.485000
   467  Cl    s     9.346017   -0.481736   13.797783    0.000000   -2.485000
   468  Cl    s    -0.621159    7.719011   -5.036370    0.000000   -2.485000
   469  Cl    s    17.477656    4.051071    5.103152    0.000000   -2.485000
   470  Cl    s    10.425299    2.835970   14.495885    0.000000   -2.485000
   471  Cl    s     5.428333   15.674476    1.789127    0.000000   -2.485000
   472  Cl    s    -2.052751   12.045347    7.169043    0.000000   -2.485000
   473  Cl    s     9.250573   -4.129093   -3.634495    0.000000   -2.485000
   474  Cl    s     7.598988    8.686872   14.502395    0.000000   -2.485000
   475  Cl    s     4.339931   15.731196    5.089457    0.000000   -2.485000
   476  Cl    s    14.022457   12.606024    3.010309    0.000000   -2.485000
   477  Cl    s     3.595062   -3.263513   12.573532    0.000000   -2.485000
   478  Cl    s    16.082095   -1.648496    3.695610    0.000000   -2.485000
   479  Cl    s     5.324272   -5.481553   10.495035    0.000000   -2.485000
   480  Cl    s     1.849436   -0.511468   13.820138    0.000000   -2.485000
   481  Cl    s     3.697684   14.826060    8.395182    0.000000   -2.485000
   482  Cl    s    16.079601    1.961727   -1.705127    0.000000   -2.485000
   483  Cl    s    14.981429   -2.176215    7.879399    0.000000   -2.485000
   484  Cl    s     7.599555   15.900029    3.700453    0.000000   -2.485000
   485  Cl    s    -5.635675    6.704276    2.964142    0.000000   -2.485000
   486  Cl    s    12.815464    5.398130   -5.717126    0.000000   -2.485000
   487  Cl    s     1.098495   -5.288377    9.057536    0.000000   -2.485000
   488  Cl    s    10.429589   13.662545   -1.700796    0.000000   -2.485000
   489  Cl    s     0.658940   -0.494818   -5.756864    0.000000   -2.485000
   490  Cl    s    16.844060    3.145424    8.410073    0.000000   -2.485000
   491  Cl    s     3.928390   -7.524785    3.657991    0.000000   -2.485000
   492  Cl    s     6.501378   15.369409    7.881755    0.000000   -2.485000
   493  Cl    s    -4.549072    6.411542    9.058505    0.000000   -2.485000
   494  Cl    s    -0.312022   13.466616   -0.321163    0.000000   -2.485000
   495  Cl    s     7.527545    2.245771   -7.811362    0.000000   -2.485000
   496  Cl    s    11.824504   12.140089   10.507024    0.000000   -2.485000
   497  Cl    s     1.751460   -4.157185   -3.659819    0.000000   -2.485000
   498  Cl    s    -4.548643   10.014507    3.661002    0.000000   -2.485000
   499  Cl    s    -3.457846    2.739945   11.158669    0.000000   -2.485000
   500  Cl    s    12.918832    8.468620   12.606749    0.000000   -2.485000
   501  Cl    s     3.926276   -0.309086   -7.137447    0.000000   -2.485000
   502  Cl    s    -2.808541   -2.760966    8.368412    0.000000   -2.485000
   503  Cl    s     1.104447    5.538982   -7.135738    0.000000   -2.485000
   504  Cl    s    12.147326    0.065878   13.275774    0.000000   -2.485000
   505  Cl    s     8.258837   13.431388   -3.611360    0.000000   -2.485000
   506  Cl    s     5.017930   -3.974957   -5.041835    0.000000   -2.485000
   507  Cl    s     6.500061   11.766754   13.283888    0.000000   -2.485000
   508  Cl    s    -0.968567    5.349090   13.787534    0.000000   -2.485000
   509  Cl    s    -4.987857    7.599074   -0.346206    0.000000   -2.485000
   510  Cl    s     8.147726   -7.692924    5.070476    0.000000   -2.485000
   511  Cl    s     7.155294    2.660366   15.887616    0.000000   -2.485000
   512  Cl    s    -0.636631   -3.108521   11.156548    0.000000   -2.485000
   513  Cl    s     5.016803   -7.584322    0.356564    0.000000   -2.485000
   514  Cl    s     4.700049    8.092703   -7.813081    0.000000   -2.485000
   515  Cl    s    15.010916   -1.346624   -2.404951    0.000000   -2.485000
   516  Cl    s     2.510960   11.227407   -5.724498    0.000000   -2.485000
   517  Cl    s     3.697860   11.217540   13.797193    0.000000   -2.485000
   518  Cl    s    -1.072732   -5.521935    7.147667    0.000000   -2.485000
   519  Cl    s    -5.632361    3.091659    8.366516    0.000000   -2.485000
   520  Cl    s     8.700872   15.850838    0.395554    0.000000   -2.485000
   521  Cl    s     9.994663   11.250488   -5.711010    0.000000   -2.485000
   522  Cl    s    -2.047623    8.435780   12.568825    0.000000   -2.485000
   523  Cl    s     9.251608   -7.732144    1.768807    0.000000   -2.485000
   524  Cl    s    -2.153702    5.358684   -5.743237    0.000000   -2.485000
   525  Cl    s    11.079287   -3.243910   12.582589    0.000000   -2.485000
   526  Cl    s     5.867462   14.479558   11.198021    0.000000   -2.485000
   527  Cl    s     2.835946    2.778586   -8.338068    0.000000   -2.485000
   528  Cl    s    14.342465    7.760765   -5.006813    0.000000   -2.485000
   529  Cl    s    11.193529   14.844553    8.411731    0.000000   -2.485000
   530  Cl    s    17.479157    7.661012   -0.298101    0.000000   -2.485000
   531  Cl    s    -3.895834    7.547243   -3.651116    0.000000   -2.485000
   532  Cl    s    16.822997    9.545274    7.899478    0.000000   -2.485000
   533  Cl    s    18.573752    3.987431    1.802994    0.000000   -2.485000
   534  Cl    s     5.656336   -6.678541   -2.944362    0.000000   -2.485000
   535  Cl    s     1.757420   -7.754146    1.746675    0.000000   -2.485000
   536  Cl    s     5.763722   -3.035339   14.490295    0.000000   -2.485000
   537  Cl    s     4.333080    8.509864   15.888855    0.000000   -2.485000
   538  Cl    s    -2.818162   10.859173   -2.944620    0.000000   -2.485000
   539  Cl    s    14.014731    5.384423   13.810639    0.000000   -2.485000
   540  Cl    s     0.107345    8.664290   14.503228    0.000000   -2.485000
   541  Cl    s    15.006839   -4.956719    2.995003    0.000000   -2.485000
   542  Cl    s    11.422009   -7.525848    3.688311    0.000000   -2.485000
   543  Cl    s    13.907496   -5.484792    7.183194    0.000000   -2.485000
   544  Cl    s    11.827425   15.748531    5.105384    0.000000   -2.485000
   545  Cl    s     0.116311   15.886821    3.681312    0.000000   -2.485000
   546  Cl    s    -5.287260   -1.757532    0.343855    0.000000   -2.485000
--------------------------------------------------------------------------------

  Final coordinates of symmetry reduced region 1 (relative to defect centre):

--------------------------------------------------------------------------------
   No.  Atomic        x           y           z          Charge
        Label       (Angs)      (Angs)      (Angs)         (e) 
--------------------------------------------------------------------------------
     1  Sc    c    -2.623539    1.443331   -0.049336    3.000000
     2  Sc    c    -0.282796   -1.920855   -2.295161    3.000000
     3  Cl    c    -1.994712   -0.325399   -1.607606    1.485000
     4  Cl    c    -1.710011    2.221474    2.088720    1.485000
     5  Cl    c     1.768365   -2.753665   -1.238459    1.485000
     6  Cl    c     0.949565   -0.120944   -3.446876    1.485000
     7  Cl    c    -1.277025    3.067576   -1.324820    1.485000
     8  Cl    c    -3.731170   -0.299148    1.288044    1.485000
     9  Cl    c    -1.436505   -3.585183   -0.900091    1.485000
    10  Cl    c     3.924528   -0.323026    1.194451    1.485000
    11  Cl    c    -1.091522   -0.596185    3.987215    1.485000
    12  Cl    c     3.229575    2.480925   -0.814695    1.485000
    13  Cl    c     0.955462   -3.529040    2.034614    1.485000
    14  Cl    c     2.177549    1.985248    3.220312    1.485000
    15  Sc    c    -3.166769    0.713419    3.564450    3.000000
    16  Sc    c     0.680661   -4.775649   -0.101794    3.000000
    17  Cl    c    -4.578756    2.603512   -0.943597    1.485000
    18  Cl    c    -0.829629   -2.753949   -4.524801    1.485000
    19  Sc    c     5.329054    1.238671   -0.192441    3.000000
    20  Cl    c     4.999219   -0.263416   -2.177297    1.485000
    21  Sc    c     4.373011    0.777102    3.414631    3.000000
    22  Cl    c    -2.521293   -3.923043    3.232227    1.485000
    23  Sc    c    -3.259097    4.473650   -2.107724    3.000000
    24  Cl    c     3.227910   -1.121970    4.584274    1.485000
    25  Sc    c     0.618127   -1.054277   -5.797878    3.000000
    26  Cl    c     1.121190    5.508346    1.203458    1.485000
    27  Sc    c    -2.214592   -2.472604    5.258799    3.000000
    28  Sc    c    -0.350074   -5.159604    3.464423    3.000000
    29  Cl    c    -4.306636   -1.191538    4.677201    1.485000
    30  Cl    c    -0.730434   -6.306754    1.253621    1.485000
    31  Cl    c    -1.458465    0.238203   -6.266647    1.485000
    32  Cl    c    -3.567119    3.257833   -4.257712    1.485000
    33  Cl    c     2.160894    5.582777   -2.174637    1.485000
    34  Cl    c    -2.810972    2.250941    5.481695    1.485000
    35  Cl    c    -0.014276   -3.648243    5.429956    1.485000
    36  Cl    c    -5.729977   -2.754107   -1.416483    1.485000
    37  Cl    c    -2.913209    5.800788   -0.024689    1.485000
    38  Cl    c     2.887244   -5.903731    0.035307    1.485000
    39  Cl    c    -5.259428    2.027462    3.224605    1.485000
    40  Sc    c     4.364128    4.393267   -1.998795    3.000000
    41  Cl    c     0.418844   -6.097495   -2.202394    1.485000
    42  Cl    c    -0.031326    3.578934   -5.408252    1.485000
    43  Cl    c     2.748524   -2.295447   -5.432641    1.485000
    44  Cl    c     5.718848    2.360144    2.011640    1.485000
    45  Cl    c     0.401651    4.722166    4.585579    1.485000
    46  Cl    c     3.948586    3.269062   -4.201333    1.485000
    47  Sc    c     2.493390    3.484353    5.221125    3.000000
    48  Cl    c     1.129342    1.899449    6.606058    1.485000
    49  Cl    c     6.062591   -3.359305   -0.804234    1.485000
    50  Cl    c    -1.768104    5.952397   -3.437077    1.485000
    51  Cl    c     5.005320   -3.864975    3.211188    1.485000
    52  Cl    c     1.771497    0.892403   -6.822895    1.485000
    53  Cl    c    -6.425228    0.050297   -3.415024    1.485000
    54  Cl    c     6.443287    3.128927   -1.393568    1.485000
    55  Cl    c    -7.489915   -0.017709   -0.050740    1.485000
    56  Cl    c    -4.652670   -5.845669   -0.047614    1.485000
    57  Cl    c    -4.671286   -2.261962   -5.435486    1.485000
    58  Cl    c     4.673293    2.261775    5.407905    1.485000
    59  Cl    c     7.498334    0.011083    0.006997    1.485000
    60  Cl    c     4.659982    5.860986    0.009693    1.485000
    61  Sc    c     2.485514    7.095704   -0.190638    3.000000
    62  Cl    c    -6.443866   -3.531666    1.975197    1.485000
    63  Sc    c     7.202047   -1.470359   -1.999298    3.000000
    64  Cl    c    -3.617190   -5.769151   -3.428778    1.485000
    65  Sc    c     1.536993    6.633449    3.413540    3.000000
    66  Cl    c     6.446755   -0.494991    3.999089    1.485000
    67  Cl    c     3.618549    5.362909    4.004661    1.485000
    68  Cl    c     1.757018   -6.382291    4.006625    1.485000
    69  Sc    c    -2.181618    4.844270   -5.660330    3.000000
    70  Cl    c    -1.803726   -1.289075    7.415527    1.485000
    71  Sc    c    -0.315246    2.155626   -7.454971    3.000000
    72  Cl    c    -3.855616    5.355241    3.996535    1.485000
    73  Cl    c     3.892682   -5.734567   -3.404183    1.485000
    74  Sc    c     5.316362   -2.380993    5.212672    3.000000
    75  Sc    c    -4.989463    3.512835    5.252724    3.000000
    76  Sc    c     2.598016   -7.362145   -2.011090    3.000000
    77  Cl    c    -5.406501    5.707845   -2.255328    1.485000
    78  Cl    c     0.363504   -2.544408   -7.767238    1.485000
    79  Sc    c    -7.831898   -1.517020   -2.037235    3.000000
    80  Sc    c    -6.858905   -4.662982   -0.222863    3.000000
    81  Cl    c     6.777647   -2.582788   -4.205673    1.485000
    82  Cl    c     0.400967    8.345904   -0.808153    1.485000
    83  Cl    c    -3.563590   -4.033683    6.653821    1.485000
    84  Cl    c    -1.461157   -7.045888    4.648849    1.485000
    85  Cl    c    -6.363352    5.486290    1.204810    1.485000
    86  Cl    c     1.402456   -5.626831   -6.212334    1.485000
    87  Cl    c    -0.652510    7.837621    3.222039    1.485000
    88  Cl    c     3.943654   -3.953393    6.601935    1.485000
    89  Sc    c    -5.063147    7.115587   -0.184318    3.000000
    90  Sc    c     2.543468   -3.783600   -7.464330    3.000000
[...]
    465 y          9.842632      9.838269    -0.004363    Cartesian   -0.04
    465 z          1.799976      1.804805     0.004830    Cartesian    0.27
    466 x         -3.458315     -3.448221     0.010094    Cartesian   -0.29
    466 y          9.965890      9.953685    -0.012204    Cartesian   -0.12
    466 z          0.360100      0.363112     0.003012    Cartesian    0.84
    467 x          9.350313      9.346017    -0.004297    Cartesian   -0.05
    467 y         -0.482647     -0.481736     0.000911    Cartesian   -0.19
    467 z         13.803101     13.797783    -0.005318    Cartesian   -0.04
    468 x         -0.628722     -0.621159     0.007564    Cartesian   -1.20
    468 y          7.725372      7.719011    -0.006361    Cartesian   -0.08
    468 z         -5.044292     -5.036370     0.007923    Cartesian   -0.16
    469 x         17.483444     17.477656    -0.005789    Cartesian   -0.03
    469 y          4.046255      4.051071     0.004816    Cartesian    0.12
    469 z          5.103828      5.103152    -0.000676    Cartesian   -0.01
    470 x         10.423834     10.425299     0.001465    Cartesian    0.01
    470 y          2.833512      2.835970     0.002459    Cartesian    0.09
    470 z         14.502731     14.495885    -0.006847    Cartesian   -0.05
    471 x          5.434771      5.428333    -0.006438    Cartesian   -0.12
    471 y         15.677302     15.674476    -0.002826    Cartesian   -0.02
    471 z          1.785712      1.789127     0.003415    Cartesian    0.19
    472 x         -2.061506     -2.052751     0.008754    Cartesian   -0.42
    472 y         12.047802     12.045347    -0.002455    Cartesian   -0.02
    472 z          7.172868      7.169043    -0.003825    Cartesian   -0.05
    473 x          9.249742      9.250573     0.000831    Cartesian    0.01
    473 y         -4.137920     -4.129093     0.008827    Cartesian   -0.21
    473 z         -3.638888     -3.634495     0.004394    Cartesian   -0.12
    474 x          7.597803      7.598988     0.001186    Cartesian    0.02
    474 y          8.685856      8.686872     0.001017    Cartesian    0.01
    474 z         14.504218     14.502395    -0.001822    Cartesian   -0.01
    475 x          4.338666      4.339931     0.001265    Cartesian    0.03
    475 y         15.733269     15.731196    -0.002073    Cartesian   -0.01
    475 z          5.091050      5.089457    -0.001593    Cartesian   -0.03
    476 x         14.024120     14.022457    -0.001664    Cartesian   -0.01
    476 y         12.611024     12.606024    -0.005000    Cartesian   -0.04
    476 z          3.014524      3.010309    -0.004215    Cartesian   -0.14
    477 x          3.586996      3.595062     0.008067    Cartesian    0.22
    477 y         -3.268712     -3.263513     0.005199    Cartesian   -0.16
    477 z         12.572802     12.573532     0.000730    Cartesian    0.01
    478 x         16.083019     16.082095    -0.000924    Cartesian   -0.01
    478 y         -1.647522     -1.648496    -0.000973    Cartesian    0.06
    478 z          3.693947      3.695610     0.001663    Cartesian    0.05
    479 x          5.320483      5.324272     0.003790    Cartesian    0.07
    479 y         -5.453263     -5.481553    -0.028291    Cartesian    0.52
    479 z         10.473749     10.495035     0.021286    Cartesian    0.20
    480 x          1.857597      1.849436    -0.008161    Cartesian   -0.44
    480 y         -0.500320     -0.511468    -0.011148    Cartesian    2.23
    480 z         13.787351     13.820138     0.032787    Cartesian    0.24
    481 x          3.701812      3.697684    -0.004128    Cartesian   -0.11
    481 y         14.833867     14.826060    -0.007807    Cartesian   -0.05
    481 z          8.403167      8.395182    -0.007985    Cartesian   -0.10
    482 x         16.086580     16.079601    -0.006979    Cartesian   -0.04
    482 y          1.964304      1.961727    -0.002578    Cartesian   -0.13
    482 z         -1.708959     -1.705127     0.003832    Cartesian   -0.22
    483 x         14.982851     14.981429    -0.001422    Cartesian   -0.01
    483 y         -2.175389     -2.176215    -0.000826    Cartesian    0.04
    483 z          7.883770      7.879399    -0.004371    Cartesian   -0.06
    484 x          7.604925      7.599555    -0.005370    Cartesian   -0.07
    484 y         15.909509     15.900029    -0.009480    Cartesian   -0.06
    484 z          3.698405      3.700453     0.002048    Cartesian    0.06
    485 x         -5.627996     -5.635675    -0.007679    Cartesian    0.14
    485 y          6.705659      6.704276    -0.001383    Cartesian   -0.02
    485 z          2.965789      2.964142    -0.001647    Cartesian   -0.06
    486 x         12.823882     12.815464    -0.008418    Cartesian   -0.07
    486 y          5.399891      5.398130    -0.001761    Cartesian   -0.03
    486 z         -5.719220     -5.717126     0.002094    Cartesian   -0.04
    487 x          1.094026      1.098495     0.004469    Cartesian    0.41
    487 y         -5.294696     -5.288377     0.006319    Cartesian   -0.12
    487 z          9.065354      9.057536    -0.007817    Cartesian   -0.09
    488 x         10.434518     10.429589    -0.004929    Cartesian   -0.05
    488 y         13.668992     13.662545    -0.006447    Cartesian   -0.05
    488 z         -1.705987     -1.700796     0.005191    Cartesian   -0.30
    489 x          0.664481      0.658940    -0.005542    Cartesian   -0.83
    489 y         -0.487800     -0.494818    -0.007018    Cartesian    1.44
    489 z         -5.752206     -5.756864    -0.004658    Cartesian    0.08
    490 x         16.846591     16.844060    -0.002531    Cartesian   -0.02
    490 y          3.146853      3.145424    -0.001430    Cartesian   -0.05
    490 z          8.415944      8.410073    -0.005871    Cartesian   -0.07
    491 x          3.923618      3.928390     0.004771    Cartesian    0.12
    491 y         -7.535213     -7.524785     0.010428    Cartesian   -0.14
    491 z          3.660961      3.657991    -0.002971    Cartesian   -0.08
    492 x          6.504757      6.501378    -0.003379    Cartesian   -0.05
    492 y         15.381642     15.369409    -0.012233    Cartesian   -0.08
    492 z          7.888228      7.881755    -0.006474    Cartesian   -0.08
    493 x         -4.558037     -4.549072     0.008965    Cartesian   -0.20
    493 y          6.409991      6.411542     0.001550    Cartesian    0.02
    493 z          9.068326      9.058505    -0.009821    Cartesian   -0.11
    494 x         -0.324458     -0.312022     0.012436    Cartesian   -3.83
    494 y         13.475078     13.466616    -0.008462    Cartesian   -0.06
    494 z         -0.329092     -0.321163     0.007929    Cartesian   -2.41
    495 x          7.523905      7.527545     0.003640    Cartesian    0.05
    495 y          2.242299      2.245771     0.003473    Cartesian    0.15
    495 z         -7.827246     -7.811362     0.015884    Cartesian   -0.20
    496 x         11.827821     11.824504    -0.003316    Cartesian   -0.03
    496 y         12.139116     12.140089     0.000973    Cartesian    0.01
    496 z         10.509706     10.507024    -0.002682    Cartesian   -0.03
    497 x          1.757026      1.751460    -0.005566    Cartesian   -0.32
    497 y         -4.155593     -4.157185    -0.001592    Cartesian    0.04
    497 z         -3.654638     -3.659819    -0.005181    Cartesian    0.14
    498 x         -4.554475     -4.548643     0.005833    Cartesian   -0.13
    498 y         10.021818     10.014507    -0.007311    Cartesian   -0.07
    498 z          3.665420      3.661002    -0.004418    Cartesian   -0.12
    499 x         -3.465437     -3.457846     0.007591    Cartesian   -0.22
    499 y          2.742236      2.739945    -0.002292    Cartesian   -0.08
    499 z         11.165912     11.158669    -0.007243    Cartesian   -0.06
    500 x         12.920365     12.918832    -0.001533    Cartesian   -0.01
    500 y          8.471322      8.468620    -0.002702    Cartesian   -0.03
    500 z         12.607274     12.606749    -0.000525    Cartesian   -0.00
    501 x          3.930741      3.926276    -0.004465    Cartesian   -0.11
    501 y         -0.311560     -0.309086     0.002474    Cartesian   -0.79
    501 z         -7.144851     -7.137447     0.007404    Cartesian   -0.10
    502 x         -2.805526     -2.808541    -0.003015    Cartesian    0.11
    502 y         -2.758511     -2.760966    -0.002455    Cartesian    0.09
    502 z          8.367209      8.368412     0.001203    Cartesian    0.01
    503 x          1.104709      1.104447    -0.000263    Cartesian   -0.02
    503 y          5.540784      5.538982    -0.001802    Cartesian   -0.03
    503 z         -7.143365     -7.135738     0.007627    Cartesian   -0.11
    504 x         12.153259     12.147326    -0.005933    Cartesian   -0.05
    504 y          0.065128      0.065878     0.000750    Cartesian    1.15
    504 z         13.288162     13.275774    -0.012388    Cartesian   -0.09
    505 x          8.264364      8.258837    -0.005527    Cartesian   -0.07
    505 y         13.436785     13.431388    -0.005397    Cartesian   -0.04
    505 z         -3.618680     -3.611360     0.007321    Cartesian   -0.20
    506 x          5.023340      5.017930    -0.005411    Cartesian   -0.11
    506 y         -3.979315     -3.974957     0.004358    Cartesian   -0.11
    506 z         -5.047265     -5.041835     0.005429    Cartesian   -0.11
    507 x          6.501196      6.500061    -0.001135    Cartesian   -0.02
    507 y         11.769816     11.766754    -0.003061    Cartesian   -0.03
    507 z         13.291135     13.283888    -0.007246    Cartesian   -0.05
    508 x         -0.968434     -0.968567    -0.000133    Cartesian    0.01
    508 y          5.352023      5.349090    -0.002933    Cartesian   -0.05
    508 z         13.788837     13.787534    -0.001303    Cartesian   -0.01
    509 x         -4.991142     -4.987857     0.003285    Cartesian   -0.07
    509 y          7.605061      7.599074    -0.005987    Cartesian   -0.08
    509 z         -0.346327     -0.346206     0.000122    Cartesian   -0.04
    510 x          8.150075      8.147726    -0.002349    Cartesian   -0.03
    510 y         -7.693780     -7.692924     0.000856    Cartesian   -0.01
    510 z          5.069356      5.070476     0.001120    Cartesian    0.02
    511 x          7.157575      7.155294    -0.002281    Cartesian   -0.03
    511 y          2.657272      2.660366     0.003094    Cartesian    0.12
    511 z         15.895377     15.887616    -0.007761    Cartesian   -0.05
    512 x         -0.639406     -0.636631     0.002775    Cartesian   -0.43
    512 y         -3.110107     -3.108521     0.001587    Cartesian   -0.05
    512 z         11.164426     11.156548    -0.007878    Cartesian   -0.07
    513 x          5.019779      5.016803    -0.002976    Cartesian   -0.06
    513 y         -7.591142     -7.584322     0.006820    Cartesian   -0.09
    513 z          0.355642      0.356564     0.000923    Cartesian    0.26
    514 x          4.697873      4.700049     0.002176    Cartesian    0.05
    514 y          8.094642      8.092703    -0.001940    Cartesian   -0.02
    514 z         -7.825760     -7.813081     0.012679    Cartesian   -0.16
    515 x         15.013060     15.010916    -0.002143    Cartesian   -0.01
    515 y         -1.351854     -1.346624     0.005231    Cartesian   -0.39
    515 z         -2.408590     -2.404951     0.003639    Cartesian   -0.15
    516 x          2.505135      2.510960     0.005826    Cartesian    0.23
    516 y         11.234561     11.227407    -0.007154    Cartesian   -0.06
    516 z         -5.733484     -5.724498     0.008986    Cartesian   -0.16
    517 x          3.698251      3.697860    -0.000390    Cartesian   -0.01
    517 y         11.222041     11.217540    -0.004500    Cartesian   -0.04
    517 z         13.806073     13.797193    -0.008880    Cartesian   -0.06
    518 x         -1.076128     -1.072732     0.003396    Cartesian   -0.32
    518 y         -5.526903     -5.521935     0.004968    Cartesian   -0.09
    518 z          7.152660      7.147667    -0.004994    Cartesian   -0.07
    519 x         -5.631557     -5.632361    -0.000804    Cartesian    0.01
    519 y          3.093833      3.091659    -0.002174    Cartesian   -0.07
    519 z          8.368695      8.366516    -0.002179    Cartesian   -0.03
    520 x          8.701086      8.700872    -0.000214    Cartesian   -0.00
    520 y         15.853580     15.850838    -0.002743    Cartesian   -0.02
    520 z          0.393085      0.395554     0.002469    Cartesian    0.63
    521 x          9.997851      9.994663    -0.003188    Cartesian   -0.03
    521 y         11.252235     11.250488    -0.001747    Cartesian   -0.02
    521 z         -5.717734     -5.711010     0.006724    Cartesian   -0.12
    522 x         -2.065067     -2.047623     0.017444    Cartesian   -0.84
    522 y          8.435975      8.435780    -0.000196    Cartesian   -0.00
    522 z         12.575775     12.568825    -0.006950    Cartesian   -0.06
    523 x          9.246181      9.251608     0.005427    Cartesian    0.06
    523 y         -7.749746     -7.732144     0.017602    Cartesian   -0.23
    523 z          1.764018      1.768807     0.004789    Cartesian    0.27
    524 x         -2.161550     -2.153702     0.007848    Cartesian   -0.36
    524 y          5.364544      5.358684    -0.005860    Cartesian   -0.11
    524 z         -5.750720     -5.743237     0.007483    Cartesian   -0.13
    525 x         11.079712     11.079287    -0.000425    Cartesian   -0.00
    525 y         -3.251039     -3.243910     0.007129    Cartesian   -0.22
    525 z         12.588552     12.582589    -0.005963    Cartesian   -0.05
    526 x          5.867932      5.867462    -0.000470    Cartesian   -0.01
    526 y         14.482271     14.479558    -0.002712    Cartesian   -0.02
    526 z         11.200384     11.198021    -0.002363    Cartesian   -0.02
    527 x          2.834134      2.835946     0.001812    Cartesian    0.06
    527 y          2.772400      2.778586     0.006186    Cartesian    0.22
    527 z         -8.357934     -8.338068     0.019866    Cartesian   -0.24
    528 x         14.356709     14.342465    -0.014244    Cartesian   -0.10
    528 y          7.760720      7.760765     0.000046    Cartesian    0.00
    528 z         -5.012793     -5.006813     0.005980    Cartesian   -0.12
    529 x         11.194528     11.193529    -0.000999    Cartesian   -0.01
    529 y         14.851541     14.844553    -0.006988    Cartesian   -0.05
    529 z          8.418916      8.411731    -0.007186    Cartesian   -0.09
    530 x         17.487006     17.479157    -0.007849    Cartesian   -0.04
    530 y          7.658082      7.661012     0.002931    Cartesian    0.04
    530 z         -0.299078     -0.298101     0.000977    Cartesian   -0.33
    531 x         -3.895037     -3.895834    -0.000797    Cartesian    0.02
    531 y          7.549094      7.547243    -0.001851    Cartesian   -0.02
    531 z         -3.651666     -3.651116     0.000550    Cartesian   -0.02
    532 x         16.823504     16.822997    -0.000507    Cartesian   -0.00
    532 y          9.546972      9.545274    -0.001698    Cartesian   -0.02
    532 z          7.902492      7.899478    -0.003014    Cartesian   -0.04
    533 x         18.579550     18.573752    -0.005798    Cartesian   -0.03
    533 y          3.990288      3.987431    -0.002858    Cartesian   -0.07
    533 z          1.798489      1.802994     0.004504    Cartesian    0.25
    534 x          5.656604      5.656336    -0.000268    Cartesian   -0.00
    534 y         -6.691770     -6.678541     0.013229    Cartesian   -0.20
    534 z         -2.956514     -2.944362     0.012152    Cartesian   -0.41
    535 x          1.753465      1.757420     0.003956    Cartesian    0.23
    535 y         -7.767420     -7.754146     0.013274    Cartesian   -0.17
    535 z          1.748268      1.746675    -0.001593    Cartesian   -0.09
    536 x          5.757149      5.763722     0.006573    Cartesian    0.11
    536 y         -3.036505     -3.035339     0.001166    Cartesian   -0.04
    536 z         14.485496     14.490295     0.004799    Cartesian    0.03
    537 x          4.331543      4.333080     0.001536    Cartesian    0.04
    537 y          8.509616      8.509864     0.000248    Cartesian    0.00
    537 z         15.896863     15.888855    -0.008007    Cartesian   -0.05
    538 x         -2.821490     -2.818162     0.003328    Cartesian   -0.12
    538 y         10.865261     10.859173    -0.006087    Cartesian   -0.06
    538 z         -2.952056     -2.944620     0.007435    Cartesian   -0.25
    539 x         14.016998     14.014731    -0.002267    Cartesian   -0.02
    539 y          5.387370      5.384423    -0.002947    Cartesian   -0.05
    539 z         13.820336     13.810639    -0.009697    Cartesian   -0.07
    540 x          0.105087      0.107345     0.002259    Cartesian    2.15
    540 y          8.668182      8.664290    -0.003892    Cartesian   -0.04
    540 z         14.488468     14.503228     0.014760    Cartesian    0.10
    541 x         15.009498     15.006839    -0.002659    Cartesian   -0.02
    541 y         -4.963681     -4.956719     0.006962    Cartesian   -0.14
    541 z          2.994316      2.995003     0.000687    Cartesian    0.02
    542 x         11.416334     11.422009     0.005675    Cartesian    0.05
    542 y         -7.517540     -7.525848    -0.008308    Cartesian    0.11
    542 z          3.676711      3.688311     0.011599    Cartesian    0.32
    543 x         13.909304     13.907496    -0.001808    Cartesian   -0.01
    543 y         -5.491556     -5.484792     0.006763    Cartesian   -0.12
    543 z          7.184160      7.183194    -0.000966    Cartesian   -0.01
    544 x         11.831382     11.827425    -0.003956    Cartesian   -0.03
    544 y         15.750942     15.748531    -0.002412    Cartesian   -0.02
    544 z          5.106800      5.105384    -0.001416    Cartesian   -0.03
    545 x          0.112209      0.116311     0.004101    Cartesian    3.66
    545 y         15.891835     15.886821    -0.005014    Cartesian   -0.03
    545 z          3.682655      3.681312    -0.001343    Cartesian   -0.04
    546 x         -5.298968     -5.287260     0.011708    Cartesian   -0.22
    546 y         -1.756471     -1.757532    -0.001061    Cartesian    0.06
    546 z          0.341378      0.343855     0.002477    Cartesian    0.73
--------------------------------------------------------------------------------


  Time to end of optimisation  =      144.7526 seconds


  Peak dynamic memory used =      46.84 MB 


  Timing analysis for GULP :

--------------------------------------------------------------------------------
  Task / Subroutine                                          Time (Seconds)
--------------------------------------------------------------------------------
  Calculation of reciprocal space energy and derivatives          0.0084
  Calculation of real space energy and derivatives                0.2121
  Calculation for region 1 energy and derivatives (2-b)          46.0892
  Calculation for region 2a energy                               82.7769
  Calculation for region 2b energy                                0.0218
  Calculation and manipulation of Hessian matrix                  0.0158
  Calculation of matrix inversion                                15.1882
--------------------------------------------------------------------------------
  Total CPU time                                                144.7527
--------------------------------------------------------------------------------


  Dump file written as ScCl3.grs



  **** GULP has completed with   2 warnings - beware! ****

  Job Finished at 18:46.14  7th February   2022                               

