********************************************************************************
*                       GENERAL UTILITY LATTICE PROGRAM                        *
*                                 Julian Gale                                  *
*                       Curtin Institute for Computation                       *
*                    School of Molecular and Life Sciences                     *
*                    Curtin University, Western Australia                      *
********************************************************************************
* Version = 5.2.0 * Last modified =   1st June 2020                            *
********************************************************************************
*  optimise     - perform optimisation run                                     *
*  conp         - constant pressure calculation                                *
*  property     - calculate properties for final geometry                      *
*  defect       - perform defect calculation after bulk run                    *
*  compare      - compare initial and final structures                         *
********************************************************************************

  Job Started  at 18:43.41  7th February   2022                               

  Number of CPUs =     1


  Total number of configurations input =      1

********************************************************************************
*  Input for Configuration =   1                                               *
********************************************************************************

  Formula = Sc2Cl6                                                      

  Number of irreducible atoms/shells =      14


  Total number atoms/shells =      14

  Dimensionality = 3               :  Bulk   



  Cartesian lattice vectors (Angstroms) :

        7.453000    0.000000    0.000000
        4.624520    5.844744    0.000000
        4.624520    2.237970    5.399307

  Cell parameters (Angstroms/Degrees):

  a =       7.4530    alpha =  51.6480
  b =       7.4530    beta  =  51.6480
  c =       7.4530    gamma =  51.6480

  Initial cell volume =         235.198534 Angs**3

  Temperature of configuration =   0.00     K 

  Pressure of configuration =         0.000 GPa 

  Fractional coordinates of asymmetric unit :

--------------------------------------------------------------------------------
   No.  Atomic       x           y          z         Charge      Occupancy
        Label      (Frac)      (Frac)     (Frac)        (e)         (Frac)  
--------------------------------------------------------------------------------
      1 Sc    c    0.333900    0.333900    0.333900     3.00000    1.000000    
      2 Sc    c    0.666100 *  0.666100 *  0.666100 *   3.00000    1.000000    
      3 Cl    c    0.073700 *  0.443900 *  0.705300 *   1.48500    1.000000    
      4 Cl    c    0.294700 *  0.926300 *  0.556100 *   1.48500    1.000000    
      5 Cl    c    0.443900 *  0.705300 *  0.073700 *   1.48500    1.000000    
      6 Cl    c    0.556100 *  0.294700 *  0.926300 *   1.48500    1.000000    
      7 Cl    c    0.705300 *  0.073700 *  0.443900 *   1.48500    1.000000    
      8 Cl    c    0.926300 *  0.556100 *  0.294700 *   1.48500    1.000000    
      9 Cl    s    0.073700 *  0.443900 *  0.705300 *  -2.48500    1.000000    
     10 Cl    s    0.294700 *  0.926300 *  0.556100 *  -2.48500    1.000000    
     11 Cl    s    0.443900 *  0.705300 *  0.073700 *  -2.48500    1.000000    
     12 Cl    s    0.556100 *  0.294700 *  0.926300 *  -2.48500    1.000000    
     13 Cl    s    0.705300 *  0.073700 *  0.443900 *  -2.48500    1.000000    
     14 Cl    s    0.926300 *  0.556100 *  0.294700 *  -2.48500    1.000000    
--------------------------------------------------------------------------------



********************************************************************************
*  General input information                                                   *
********************************************************************************

  Species output for all configurations : 

--------------------------------------------------------------------------------
  Species    Type    Atomic    Atomic    Charge       Radii (Angs)     Library
                     Number     Mass       (e)     Cova   Ionic  VDW   Symbol
--------------------------------------------------------------------------------
    Sc       Core       21      44.96   3.000000   1.440  0.000  2.150          
    Cl       Core       17      35.45   1.485000   0.990  0.000  1.650          
    Cl       Shell      17       0.00  -2.485000   0.990  0.000  1.650          
--------------------------------------------------------------------------------


  Lattice summation method               =    Ewald          (3-D)
                                         =    Parry          (2-D)
                                         =    Saunders et al (1-D)
  Accuracy factor for lattice sums       =   12.000


  Analytic derivatives to be used

  Time limit = Infinity

  Maximum range for interatomic potentials =    100000.000000 Angstroms

  General interatomic potentials :

--------------------------------------------------------------------------------
Atom  Types   Potential      Parameter       Value         Units   Cutoffs(Ang)
  1     2                                                            Min /  Max 
--------------------------------------------------------------------------------
Cl   c Cl   s Spring (c-s)  Spring k 2       36.070000    eV*Ang^-2 0.000  0.800
                            Spring k 4       0.0000000    eV*Ang^-4 
--------------------------------------------------------------------------------
Sc   c Cl   s Buckingham    Buckingham A     2456.2200    eV        0.000 12.000
                            Buckingham rho  0.31470000    Ang       
                            Buckingham C     0.0000000    eV*Ang^6  
--------------------------------------------------------------------------------
Cl   s Cl   s Buckingham    Buckingham A     1227.2000    eV        0.000 12.000
                            Buckingham rho  0.32100000    Ang       
                            Buckingham C     14.530000    eV*Ang^6  
--------------------------------------------------------------------------------

********************************************************************************
*  Output for configuration   1                                                *
********************************************************************************


  Components of energy : 

--------------------------------------------------------------------------------
  Interatomic potentials     =          10.39244711 eV    
  Monopole - monopole (real) =         -30.86300284 eV    
  Monopole - monopole (recip)=         -65.52201623 eV    
  Monopole - monopole (total)=         -96.38501907 eV    
--------------------------------------------------------------------------------
  Total lattice energy       =         -85.99257196 eV    
--------------------------------------------------------------------------------
  Total lattice energy       =           -8296.9687 kJ/(mole unit cells)
--------------------------------------------------------------------------------


  Number of variables =       45

  Maximum number of calculations  =          1000
  Maximum Hessian update interval =            10
  Maximum step size               =   1.000000000
  Maximum parameter tolerance     =   0.000010000
  Maximum function  tolerance     =   0.000010000
  Maximum gradient  tolerance     =   0.001000000
  Maximum gradient  component     =   0.010000000

  Symmetry not applied to optimisation

  Cell parameters to be optimised using strains

  Newton-Raphson optimiser to be used

  BFGS hessian update to be used

  Lower half triangular hessian to be used

  Start of bulk optimisation :

  Cycle:      0 Energy:       -85.992572  Gnorm:      8.922860  CPU:    0.023
  ** Hessian calculated **
  Cycle:      1 Energy:       -91.630693  Gnorm:      3.248521  CPU:    0.045
  ** Hessian calculated **
  Cycle:      2 Energy:       -93.407926  Gnorm:      0.241259  CPU:    0.072
  Cycle:      3 Energy:       -93.727483  Gnorm:      0.379189  CPU:    0.157
  Cycle:      4 Energy:       -93.872131  Gnorm:      0.419846  CPU:    0.184
  Cycle:      5 Energy:       -93.916106  Gnorm:      0.216759  CPU:    0.219
  Cycle:      6 Energy:       -93.955402  Gnorm:      0.236635  CPU:    0.253
  Cycle:      7 Energy:       -94.003608  Gnorm:      0.337075  CPU:    0.287
  Cycle:      8 Energy:       -94.063864  Gnorm:      0.300404  CPU:    0.322
  Cycle:      9 Energy:       -94.105073  Gnorm:      0.327302  CPU:    0.351
  Cycle:     10 Energy:       -94.152801  Gnorm:      0.172167  CPU:    0.386
  Cycle:     11 Energy:       -94.162078  Gnorm:      0.129678  CPU:    0.415
  ** Hessian calculated **
  Cycle:     12 Energy:       -94.184232  Gnorm:      0.042568  CPU:    0.464
  Cycle:     13 Energy:       -94.185870  Gnorm:      0.019064  CPU:    0.494
  Cycle:     14 Energy:       -94.186129  Gnorm:      0.004834  CPU:    0.525
  Cycle:     15 Energy:       -94.186171  Gnorm:      0.003759  CPU:    0.555


  **** Optimisation achieved ****


  Final energy =     -94.18617309 eV
  Final Gnorm  =       0.00026742

  Components of energy : 

--------------------------------------------------------------------------------
  Interatomic potentials     =          21.32396821 eV    
  Monopole - monopole (real) =          81.06426209 eV    
  Monopole - monopole (recip)=        -196.57440339 eV    
  Monopole - monopole (total)=        -115.51014130 eV    
--------------------------------------------------------------------------------
  Total lattice energy       =         -94.18617309 eV    
--------------------------------------------------------------------------------
  Total lattice energy       =           -9087.5259 kJ/(mole unit cells)
--------------------------------------------------------------------------------

  Final fractional coordinates of atoms :

--------------------------------------------------------------------------------
   No.  Atomic        x           y          z          Radius
        Label       (Frac)      (Frac)     (Frac)       (Angs) 
--------------------------------------------------------------------------------
     1  Sc    c     0.333900    0.333900    0.333900    0.000000
     2  Sc    c     0.667797    0.667813    0.667799    0.000000
     3  Cl    c     0.075682    0.445383    0.703391    0.000000
     4  Cl    c     0.297892    0.926501    0.556250    0.000000
     5  Cl    c     0.445899    0.703300    0.075286    0.000000
     6  Cl    c     0.555797    0.298410    0.926421    0.000000
     7  Cl    c     0.703804    0.075207    0.445450    0.000000
     8  Cl    c     0.926009    0.556319    0.298315    0.000000
     9  Cl    s     0.065947    0.452571    0.677260    0.000000
    10  Cl    s     0.324076    0.936176    0.549072    0.000000
    11  Cl    s     0.453018    0.677183    0.065599    0.000000
    12  Cl    s     0.548677    0.324526    0.936109    0.000000
    13  Cl    s     0.677621    0.065531    0.452629    0.000000
    14  Cl    s     0.935746    0.549133    0.324445    0.000000
--------------------------------------------------------------------------------

  Final Cartesian lattice vectors (Angstroms) :

        7.492716    0.017674    0.015750
        4.666685    5.870017    0.017236
        4.663123    2.258191    5.420142


  Final cell parameters and derivatives :

--------------------------------------------------------------------------------
       a            7.492753 Angstrom     dE/de1(xx)     0.001502 eV/strain
       b            7.499023 Angstrom     dE/de2(yy)     0.001130 eV/strain
       c            7.498139 Angstrom     dE/de3(zz)     0.001402 eV/strain
       alpha       51.360329 Degrees      dE/de4(yz)     0.000184 eV/strain
       beta        51.381576 Degrees      dE/de5(xz)     0.000594 eV/strain
       gamma       51.379896 Degrees      dE/de6(xy)     0.000958 eV/strain
--------------------------------------------------------------------------------

  Primitive cell volume =           237.388320 Angs**3

  Density of cell =      2.116870 g/cm**3

  Non-primitive cell volume =           237.388320 Angs**3


  Final internal derivatives :

--------------------------------------------------------------------------------
   No.  Atomic          a             b             c           Radius
        Label          (eV)          (eV)          (eV)        (eV/Angs)
--------------------------------------------------------------------------------
      1 Sc    c       0.000000      0.000000      0.000000      0.000000
      2 Sc    c       0.001681      0.001454      0.000124      0.000000
      3 Cl    c      -0.002719     -0.000640     -0.000937      0.000000
      4 Cl    c       0.000986      0.001285      0.000118      0.000000
      5 Cl    c       0.001446      0.000724      0.001502      0.000000
      6 Cl    c      -0.000978      0.000527     -0.000482      0.000000
      7 Cl    c      -0.001726     -0.001514     -0.000663      0.000000
      8 Cl    c       0.000842     -0.000977      0.000232      0.000000
      9 Cl    s       0.003561      0.001253      0.002922      0.000000
     10 Cl    s      -0.002865     -0.003016     -0.001029      0.000000
     11 Cl    s       0.001191      0.003381      0.002375      0.000000
     12 Cl    s      -0.001348     -0.004134     -0.001709      0.000000
     13 Cl    s       0.002463      0.001978      0.000726      0.000000
     14 Cl    s      -0.002693     -0.000158     -0.002951      0.000000
--------------------------------------------------------------------------------
  Maximum abs         0.003561      0.004134      0.002951      0.000000
--------------------------------------------------------------------------------

  Comparison of initial and final structures : 

--------------------------------------------------------------------------------
  Parameter   Initial value   Final value   Difference    Units      Percent
--------------------------------------------------------------------------------
    Volume       235.198534    237.388320     2.189785    Angs**3      0.93
    a              7.453000      7.492753     0.039753    Angstroms    0.53
    b              7.453000      7.499023     0.046023    Angstroms    0.62
    c              7.453000      7.498139     0.045139    Angstroms    0.61
    alpha         51.648000     51.360329    -0.287671    Degrees     -0.56
    beta          51.648000     51.381576    -0.266424    Degrees     -0.52
    gamma         51.648000     51.379896    -0.268104    Degrees     -0.52
      1 x          0.333900      0.333900     0.000000    Fractional   0.00
      1 y          0.333900      0.333900     0.000000    Fractional   0.00
      1 z          0.333900      0.333900     0.000000    Fractional   0.00
      2 x          0.666100      0.667797     0.001697    Fractional   0.25
      2 y          0.666100      0.667813     0.001713    Fractional   0.26
      2 z          0.666100      0.667799     0.001699    Fractional   0.25
      3 x          0.073700      0.075682     0.001982    Fractional   2.69
      3 y          0.443900      0.445383     0.001483    Fractional   0.33
      3 z          0.705300      0.703391     0.001909    Fractional   0.27
      4 x          0.294700      0.297892     0.003192    Fractional   1.08
      4 y          0.926300      0.926501     0.000201    Fractional   0.02
      4 z          0.556100      0.556250     0.000150    Fractional   0.03
      5 x          0.443900      0.445899     0.001999    Fractional   0.45
      5 y          0.705300      0.703300     0.002000    Fractional   0.28
      5 z          0.073700      0.075286     0.001586    Fractional   2.15
      6 x          0.556100      0.555797     0.000303    Fractional   0.05
      6 y          0.294700      0.298410     0.003710    Fractional   1.26
      6 z          0.926300      0.926421     0.000121    Fractional   0.01
      7 x          0.705300      0.703804     0.001496    Fractional   0.21
      7 y          0.073700      0.075207     0.001507    Fractional   2.04
      7 z          0.443900      0.445450     0.001550    Fractional   0.35
      8 x          0.926300      0.926009     0.000291    Fractional   0.03
      8 y          0.556100      0.556319     0.000219    Fractional   0.04
      8 z          0.294700      0.298315     0.003615    Fractional   1.23
      9 x          0.073700      0.065947     0.007753    Fractional  10.52
      9 y          0.443900      0.452571     0.008671    Fractional   1.95
      9 z          0.705300      0.677260     0.028040    Fractional   3.98
     10 x          0.294700      0.324076     0.029376    Fractional   9.97
     10 y          0.926300      0.936176     0.009876    Fractional   1.07
     10 z          0.556100      0.549072     0.007028    Fractional   1.26
     11 x          0.443900      0.453018     0.009118    Fractional   2.05
     11 y          0.705300      0.677183     0.028117    Fractional   3.99
     11 z          0.073700      0.065599     0.008101    Fractional  10.99
     12 x          0.556100      0.548677     0.007423    Fractional   1.33
     12 y          0.294700      0.324526     0.029826    Fractional  10.12
     12 z          0.926300      0.936109     0.009809    Fractional   1.06
     13 x          0.705300      0.677621     0.027679    Fractional   3.92
     13 y          0.073700      0.065531     0.008169    Fractional  11.08
     13 z          0.443900      0.452629     0.008729    Fractional   1.97
     14 x          0.926300      0.935746     0.009446    Fractional   1.02
     14 y          0.556100      0.549133     0.006967    Fractional   1.25
     14 z          0.294700      0.324445     0.029745    Fractional  10.09
--------------------------------------------------------------------------------


  Born effective charge tensors : 

-------------------------------------------------------------------------------
  Atom             x           y             z
-------------------------------------------------------------------------------
    1 Sc    x       2.2285     -0.2571     -0.1710
            y      -0.2560      2.6360     -0.0847
            z      -0.1727     -0.0813      2.7043
-------------------------------------------------------------------------------
    2 Sc    x       2.2285     -0.2571     -0.1710
            y      -0.2560      2.6360     -0.0846
            z      -0.1727     -0.0813      2.7044
-------------------------------------------------------------------------------
    3 Cl    x      -0.8062      0.2256      0.0411
            y       0.2160     -0.8834     -0.1927
            z       0.0553     -0.1841     -0.8334
-------------------------------------------------------------------------------
    4 Cl    x      -0.7835      0.1157      0.0049
            y       0.1062     -0.9970      0.2420
            z      -0.0106      0.2360     -0.7424
-------------------------------------------------------------------------------
    5 Cl    x      -0.6388     -0.0842      0.1250
            y      -0.0662     -0.7556      0.0353
            z       0.1280      0.0294     -1.1285
-------------------------------------------------------------------------------
    6 Cl    x      -0.6388     -0.0842      0.1250
            y      -0.0662     -0.7556      0.0353
            z       0.1280      0.0294     -1.1285
-------------------------------------------------------------------------------
    7 Cl    x      -0.7835      0.1157      0.0049
            y       0.1062     -0.9970      0.2420
            z      -0.0106      0.2360     -0.7424
-------------------------------------------------------------------------------
    8 Cl    x      -0.8062      0.2256      0.0411
            y       0.2160     -0.8834     -0.1927
            z       0.0553     -0.1841     -0.8334
-------------------------------------------------------------------------------




  Elastic Constant Matrix: (Units=GPa)

-------------------------------------------------------------------------------
  Indices      1         2         3         4         5         6    
-------------------------------------------------------------------------------
       1      3.6214    8.6385    8.0518    0.5781   -2.6064   -3.9922
       2      8.6385   31.8741   23.2528   -4.4482   -5.2569  -13.8933
       3      8.0518   23.2528   39.7403   -4.9820  -10.4619   -9.4746
       4      0.5781   -4.4482   -4.9820    7.0058   -1.6207    0.0048
       5     -2.6064   -5.2569  -10.4619   -1.6207    4.2787    3.1180
       6     -3.9922  -13.8933   -9.4746    0.0048    3.1180    6.9568
-------------------------------------------------------------------------------


  Elastic Compliance Matrix: (Units=1/GPa)

-------------------------------------------------------------------------------
  Indices      1         2         3         4         5         6    
-------------------------------------------------------------------------------
       1    4.139658 -2.323081 -1.150848 -3.167637 -2.310781 -2.793293
       2   -2.323081  2.746677 -0.244172  1.461210 -1.287173  4.395552
       3   -1.150848 -0.244172  1.480853  1.927327  4.035931 -0.941456
       4   -3.167637  1.461210  1.927327  3.842313  4.931639  1.512259
       5   -2.310781 -1.287173  4.035931  4.931639 11.609238 -3.606608
       6   -2.793293  4.395552 -0.941456  1.512259 -3.606608  7.652260
-------------------------------------------------------------------------------

  Mechanical properties :

-------------------------------------------------------------------------------
  Convention :                    Reuss         Voigt         Hill
-------------------------------------------------------------------------------
  Bulk  Modulus (GPa)     =       1.07413      17.23576       9.15495
  Shear Modulus (GPa)     =       0.12749       6.00110       3.06430
-------------------------------------------------------------------------------
  Velocity S-wave (km/s)  =       0.24541       1.68371       1.20315
  Velocity P-wave (km/s)  =       0.76663       3.45282       2.50097
-------------------------------------------------------------------------------
  Compressibility (1/GPa) =    0.93098656
-------------------------------------------------------------------------------
  Stress axis :                     x             y             z
-------------------------------------------------------------------------------
  Youngs Moduli (GPa)     =       0.24157       0.36408       0.67529
-------------------------------------------------------------------------------
  Poissons Ratio (x)      =                     0.84578       0.77715
  Poissons Ratio (y)      =       0.56118                     0.16489
  Poissons Ratio (z)      =       0.27801       0.08890
-------------------------------------------------------------------------------


  Piezoelectric Strain Matrix: (Units=C/m**2)

-------------------------------------------------------------------------------
  Indices      1         2         3         4         5         6    
-------------------------------------------------------------------------------
       x    -0.00008   0.00014   0.00001  -0.00009   0.00009  -0.00005
       y    -0.00004  -0.00012   0.00007   0.00004  -0.00006  -0.00002
       z    -0.00006  -0.00018  -0.00004  -0.00005   0.00002   0.00008
-------------------------------------------------------------------------------


  Piezoelectric Stress Matrix: (Units=10**-11 C/N)

-------------------------------------------------------------------------------
  Indices      1         2         3         4         5         6    
-------------------------------------------------------------------------------
       x    -0.04806   0.01066   0.03304   0.05336   0.08812  -0.00159
       y     0.01097  -0.01943   0.00109  -0.01104   0.00386  -0.03303
       z     0.00895  -0.00670  -0.00499  -0.01237  -0.01368  -0.00769
-------------------------------------------------------------------------------


  Static dielectric constant tensor : 

-------------------------------------------------------------------------------
              x         y         z
-------------------------------------------------------------------------------
       x     2.55749  -0.36997  -0.24788
       y    -0.36997   3.14505  -0.11962
       z    -0.24788  -0.11962   3.24356
--------------------------------------------------------------------------------

  High frequency dielectric constant tensor : 

-------------------------------------------------------------------------------
              x         y         z
-------------------------------------------------------------------------------
       x     1.82639  -0.04056  -0.02716
       y    -0.04056   1.89075  -0.01312
       z    -0.02716  -0.01312   1.90154
-------------------------------------------------------------------------------

  Static refractive indices : 

-------------------------------------------------------------------------------
    1 =    1.51614      2 =    1.82309      3 =    1.82312
-------------------------------------------------------------------------------

  High frequency refractive indices : 

-------------------------------------------------------------------------------
    1 =    1.34090      2 =    1.38214      3 =    1.38215
-------------------------------------------------------------------------------


  Time to end of optimisation =       0.6106 seconds

********************************************************************************
*  Defect calculation for configuration   1 :                                  *
********************************************************************************



!!!!!!!!!!!!!!!!!!!!!!!!!!!!!!!!!!!!!!!!!!!!!!!!!!!!!!!!!!!!!!!!!!!!!!!!!!!!!!!!
!! WARNING : Ambiguous vacancy specifier used
!!!!!!!!!!!!!!!!!!!!!!!!!!!!!!!!!!!!!!!!!!!!!!!!!!!!!!!!!!!!!!!!!!!!!!!!!!!!!!!!



!!!!!!!!!!!!!!!!!!!!!!!!!!!!!!!!!!!!!!!!!!!!!!!!!!!!!!!!!!!!!!!!!!!!!!!!!!!!!!!!
!! WARNING : Ambiguous vacancy specifier used
!!!!!!!!!!!!!!!!!!!!!!!!!!!!!!!!!!!!!!!!!!!!!!!!!!!!!!!!!!!!!!!!!!!!!!!!!!!!!!!!

  Total number of defects =      2

  Total charge on defect  =   1.00

  Defect centre is at   0.0737   0.4439   0.7053  Frac

  Region 1 radius =  14.0000      Number of ions =    676

  Region 2 radius =  24.0000      Number of ions =   2761

  Region 2a mode = 4 : screened electrostatics due to region 1 
                       neglect correction to region 1 forces from 2a
                       region 2a displacements based on defects only

  Region 2a ions will only interact with defects in region 1

  Vacancies:

--------------------------------------------------------------------------------
    Specification type     Symbol/Number         x          y          z
--------------------------------------------------------------------------------
    Atom                    Cl    core
    Atom                    Cl    shel
--------------------------------------------------------------------------------


  Components of defect energy : 

--------------------------------------------------------------------------------
  Region 1 - region 1                   =     -0.60761183 eV
  Region 1 - region 2a (unrelaxed)      =     10.14208629 eV
  Region 1 - 2a (relaxed - correction)  =     -0.28284242 eV
  Region 1 (Total)                      =      9.25163204 eV
  Region 2a                             =      0.14143401 eV
  Region 2b                             =     -0.19638630 eV
--------------------------------------------------------------------------------
  Total defect energy                   =      9.19667975 eV
--------------------------------------------------------------------------------

  Largest displacement in region 2 =   0.0101 Angstroms


  Number of variables =     2028

  Maximum number of calculations  =        1000
  Maximum Hessian update interval =          10
  Maximum step size               =   1.0000000
  Maximum parameter tolerance     =   0.0000100
  Maximum function  tolerance     =   0.0000100
  Maximum gradient  tolerance     =   0.0010000

  Symmetry adapted optimisation

  Newton-Raphson optimiser to be used

  BFGS hessian update to be used

  Lower half triangular hessian to be used

  Start of defect optimisation :

  Cycle:      0 Defect Energy:   9.196680  Gnorm:     0.008302  CPU:   13.849
  ** Hessian calculated **
  Cycle:      1 Defect Energy:   8.138940  Gnorm:     0.006711  CPU:   51.626
  Cycle:      2 Defect Energy:   6.962969  Gnorm:     0.004311  CPU:   73.863
  Cycle:      3 Defect Energy:   6.087064  Gnorm:     0.001143  CPU:   95.851
  Cycle:      4 Defect Energy:   6.063054  Gnorm:     0.001043  CPU:   99.695
  Cycle:      5 Defect Energy:   5.959049  Gnorm:     0.000497  CPU:  103.673
  Cycle:      6 Defect Energy:   5.922862  Gnorm:     0.000337  CPU:  107.445
  Cycle:      7 Defect Energy:   5.897713  Gnorm:     0.000245  CPU:  110.990
  Cycle:      8 Defect Energy:   5.883175  Gnorm:     0.000190  CPU:  119.240
  Cycle:      9 Defect Energy:   5.880319  Gnorm:     0.000220  CPU:  124.021
  ** Hessian calculated **
  Cycle:     10 Defect Energy:   5.867771  Gnorm:     0.000154  CPU:  141.670
  Cycle:     11 Defect Energy:   5.861122  Gnorm:     0.000108  CPU:  145.329
  Cycle:     12 Defect Energy:   5.857343  Gnorm:     0.000076  CPU:  147.484
  Cycle:     13 Defect Energy:   5.855182  Gnorm:     0.000054  CPU:  155.062
  Cycle:     14 Defect Energy:   5.853948  Gnorm:     0.000038  CPU:  159.566
  Cycle:     15 Defect Energy:   5.853234  Gnorm:     0.000027  CPU:  164.041
  Cycle:     16 Defect Energy:   5.852827  Gnorm:     0.000020  CPU:  168.415
  Cycle:     17 Defect Energy:   5.852616  Gnorm:     0.000014  CPU:  172.678
  Cycle:     18 Defect Energy:   5.852490  Gnorm:     0.000010  CPU:  176.678
  Cycle:     19 Defect Energy:   5.852439  Gnorm:     0.000007  CPU:  180.670
  ** Hessian calculated **
  Cycle:     20 Defect Energy:   5.852407  Gnorm:     0.000005  CPU:  200.165
  Cycle:     21 Defect Energy:   5.852391  Gnorm:     0.000003  CPU:  204.423
  Cycle:     22 Defect Energy:   5.852378  Gnorm:     0.000002  CPU:  208.567


  **** Optimisation achieved ****


  Final defect energy  =        5.85237377
  Final defect Gnorm   =        0.00000171

  Components of defect energy : 

--------------------------------------------------------------------------------
  Region 1 - region 1                   =     -3.08099739 eV
  Region 1 - region 2a (unrelaxed)      =      9.25889219 eV
  Region 1 - 2a (relaxed - correction)  =     -0.25796505 eV
  Region 1 (Total)                      =      5.91992976 eV
  Region 2a                             =      0.12897686 eV
  Region 2b                             =     -0.19653285 eV
--------------------------------------------------------------------------------
  Total defect energy                   =      5.85237377 eV
--------------------------------------------------------------------------------

  Largest displacement in region 2 =   0.0101 Angstroms

  Final coordinates of region 1 :

--------------------------------------------------------------------------------
   No.  Atomic        x           y           z          Radius      Charge
        Label       (Angs)      (Angs)      (Angs)       (Angs)       (e) 
--------------------------------------------------------------------------------
     1  Sc    c     3.292603    5.652377    3.779076    0.000000    3.000000
     2  Sc    c     5.635780    2.283784    1.530720    0.000000    3.000000
     3  Cl    c     3.928695    3.880568    2.227284    0.000000    1.485000
     4  Cl    c     4.203683    6.429621    5.918426    0.000000    1.485000
     5  Cl    c     7.685990    1.447898    2.586684    0.000000    1.485000
     6  Cl    c     6.865991    4.084462    0.377806    0.000000    1.485000
     7  Cl    c     4.638470    7.275821    2.501667    0.000000    1.485000
     8  Cl    c     2.183416    3.909774    5.115644    0.000000    1.485000
     9  Cl    c     4.481186    0.618636    2.924658    0.000000    1.485000
    10  Cl    c     9.841099    3.878649    5.027813    0.000000    1.485000
    11  Cl    c     4.822705    3.611092    7.816602    0.000000    1.485000
    12  Cl    c     9.146898    6.683997    3.018330    0.000000    1.485000
    13  Cl    c     6.873195    0.672914    5.860511    0.000000    1.485000
    14  Cl    c     8.093370    6.188151    7.050636    0.000000    1.485000
    15  Sc    c     2.746572    4.919876    7.393284    0.000000    3.000000
    16  Sc    c     6.596779   -0.573773    3.723885    0.000000    3.000000
    17  Cl    c     1.337771    6.810074    2.880652    0.000000    1.485000
    18  Cl    c     5.083746    1.454257   -0.698952    0.000000    1.485000
    19  Sc    c    11.245414    5.440829    3.641331    0.000000    3.000000
    20  Cl    c    10.914462    3.940764    1.655045    0.000000    1.485000
    21  Sc    c    10.287910    4.978819    7.248241    0.000000    3.000000
    22  Cl    c     3.395783    0.281200    7.061720    0.000000    1.485000
    23  Sc    c     2.656533    8.681616    1.716536    0.000000    3.000000
    24  Cl    c     9.141768    3.080695    8.418667    0.000000    1.485000
    25  Sc    c     6.532546    3.152476   -1.974034    0.000000    3.000000
    26  Cl    c     7.039211    9.709985    5.035939    0.000000    1.485000
    27  Sc    c     3.701978    1.732760    9.087849    0.000000    3.000000
    28  Sc    c     5.567280   -0.955621    7.292622    0.000000    3.000000
    29  Cl    c     1.609302    3.013110    8.506259    0.000000    1.485000
    30  Cl    c     5.185832   -2.103134    5.082004    0.000000    1.485000
    31  Cl    c     4.456666    4.445914   -2.444058    0.000000    1.485000
    32  Cl    c     2.347965    7.466753   -0.434091    0.000000    1.485000
    33  Cl    c     8.079667    9.784559    1.656546    0.000000    1.485000
    34  Cl    c     3.100442    6.458154    9.310335    0.000000    1.485000
    35  Cl    c     5.903203    0.557881    9.256901    0.000000    1.485000
    36  Cl    c     0.184967    1.445616    2.412132    0.000000    1.485000
    37  Cl    c     3.002744   10.005564    3.802441    0.000000    1.485000
    38  Cl    c     8.802841   -1.703148    3.859305    0.000000    1.485000
    39  Cl    c     0.653476    6.233214    7.053016    0.000000    1.485000
    40  Sc    c    10.282532    8.594555    1.832395    0.000000    3.000000
    41  Cl    c     6.333767   -1.895879    1.623545    0.000000    1.485000
    42  Cl    c     5.882928    7.789299   -1.590609    0.000000    1.485000
    43  Cl    c     8.661501    1.908851   -1.604150    0.000000    1.485000
    44  Cl    c    11.635700    6.561147    5.845862    0.000000    1.485000
    45  Cl    c     6.316029    8.926460    8.416288    0.000000    1.485000
    46  Cl    c     9.868251    7.468287   -0.369430    0.000000    1.485000
    47  Sc    c     8.406504    7.686726    9.052144    0.000000    3.000000
    48  Cl    c     7.039531    6.100797   10.433181    0.000000    1.485000
    49  Cl    c    11.974875    0.845041    3.027746    0.000000    1.485000
    50  Cl    c     4.146998   10.159566    0.385927    0.000000    1.485000
    51  Cl    c    10.917692    0.339656    7.043624    0.000000    1.485000
    52  Cl    c     7.685370    5.099153   -2.999482    0.000000    1.485000
    53  Cl    c    -0.512189    4.252331    0.414196    0.000000    1.485000
    54  Cl    c    12.361090    7.330398    2.440020    0.000000    1.485000
    55  Cl    c    -1.573040    4.183046    3.779835    0.000000    1.485000
    56  Cl    c     1.261305   -1.648398    3.782688    0.000000    1.485000
    57  Cl    c     1.242649    1.940894   -1.604622    0.000000    1.485000
    58  Cl    c    10.586356    6.464102    9.241307    0.000000    1.485000
    59  Cl    c    13.414619    4.212640    3.838658    0.000000    1.485000
    60  Cl    c    10.578837   10.062730    3.840732    0.000000    1.485000
    61  Sc    c     8.403795   11.296298    3.641520    0.000000    3.000000
    62  Cl    c    -0.526237    0.668795    5.804061    0.000000    1.485000
    63  Sc    c    13.116092    2.732136    1.831812    0.000000    3.000000
    64  Cl    c     2.298158   -1.570759    0.403511    0.000000    1.485000
    65  Sc    c     7.453092   10.837226    7.245423    0.000000    3.000000
    66  Cl    c    12.360994    3.706924    7.835580    0.000000    1.485000
    67  Cl    c     9.533713    9.565820    7.838389    0.000000    1.485000
    68  Cl    c     7.674075   -2.178338    7.837220    0.000000    1.485000
    69  Sc    c     3.731241    9.053791   -1.839379    0.000000    3.000000
    70  Cl    c     4.113764    2.914346   11.245830    0.000000    1.485000
    71  Sc    c     5.598824    6.362729   -3.635765    0.000000    3.000000
    72  Cl    c     2.053642    9.564693    7.828644    0.000000    1.485000
    73  Cl    c     9.810252   -1.538080    0.419236    0.000000    1.485000
    74  Sc    c    11.229247    1.820384    9.047393    0.000000    3.000000
    75  Sc    c     0.920890    7.719444    9.080961    0.000000    3.000000
    76  Sc    c     8.512406   -3.162146    1.812683    0.000000    3.000000
    77  Cl    c     0.508779    9.915968    1.574437    0.000000    1.485000
    78  Cl    c     6.279539    1.657638   -3.939920    0.000000    1.485000
    79  Sc    c    -1.917078    2.683997    1.793230    0.000000    3.000000
    80  Sc    c    -0.943762   -0.463069    3.606476    0.000000    3.000000
    81  Cl    c    12.690961    1.620490   -0.374803    0.000000    1.485000
    82  Cl    c     6.317885   12.545614    3.025587    0.000000    1.485000
    83  Cl    c     2.354299    0.170835   10.483864    0.000000    1.485000
    84  Cl    c     4.456794   -2.841595    8.478850    0.000000    1.485000
    85  Cl    c    -0.450436    9.694849    5.037399    0.000000    1.485000
    86  Cl    c     7.320834   -1.428632   -2.385809    0.000000    1.485000
    87  Cl    c     5.264843   12.043291    7.051332    0.000000    1.485000
    88  Cl    c     9.858484    0.244386   10.434817    0.000000    1.485000
    89  Sc    c     0.852837   11.320816    3.648111    0.000000    3.000000
    90  Sc    c     8.459624    0.417911   -3.634146    0.000000    3.000000
    91  Cl    c     3.405034    7.553015   -3.816890    0.000000    1.485000
    92  Cl    c    11.978905    4.455858   -2.375793    0.000000    1.485000
    93  Sc    c    -0.948142    3.154899   -1.808688    0.000000    3.000000
    94  Cl    c     0.202486    5.050352   -2.977785    0.000000    1.485000
    95  Cl    c     3.026731   -0.789896   -2.974649    0.000000    1.485000
    96  Cl    c     8.807597   12.414982    5.845522    0.000000    1.485000
    97  Cl    c    11.630470   10.177824    0.439470    0.000000    1.485000
    98  Cl    c     8.089854    2.578910   12.446699    0.000000    1.485000
    99  Sc    c     0.940001   -3.162543    1.799967    0.000000    3.000000
   100  Sc    c    11.238998    9.051707   -1.769167    0.000000    3.000000
   101  Cl    c    -2.623463    7.283052    2.411288    0.000000    1.485000
   102  Cl    c     3.029662   -4.404376    2.415071    0.000000    1.485000
   103  Cl    c     8.801047    8.808433   11.252313    0.000000    1.485000
   104  Cl    c    14.453237    4.327987    0.439545    0.000000    1.485000
   105  Cl    c    12.687502   -1.990811    5.029206    0.000000    1.485000
   106  Cl    c     9.152333   10.308058   -2.370716    0.000000    1.485000
   107  Cl    c    -0.413230    6.090795   10.430068    0.000000    1.485000
   108  Cl    c     7.337546   -5.003828    3.026167    0.000000    1.485000
   109  Sc    c    14.065699   -0.416689    3.641627    0.000000    3.000000
   110  Cl    c    -2.623715    3.684268    7.813045    0.000000    1.485000
   111  Cl    c     0.200252   -2.167518    7.810302    0.000000    1.485000
   112  Sc    c    13.108932   -0.879272    7.240164    0.000000    3.000000
   113  Sc    c     7.449012    7.218430   12.651110    0.000000    3.000000
   114  Cl    c    11.619249    2.955026   11.244109    0.000000    1.485000
   115  Cl    c    14.451361    0.716722    5.843598    0.000000    1.485000
   116  Sc    c    -0.044765   10.832906    7.245638    0.000000    3.000000
   117  Sc    c     9.417262   -2.689297   -1.786210    0.000000    3.000000
   118  Cl    c    -3.027436    0.794388    2.997755    0.000000    1.485000
   119  Cl    c    -2.304885    1.571214   -0.414566    0.000000    1.485000
   120  Cl    c     1.326011   12.403807    5.849490    0.000000    1.485000
   121  Cl    c    10.546247   -0.787286   -2.967868    0.000000    1.485000
   122  Cl    c     6.967709    7.935957   -5.003302    0.000000    1.485000
   123  Cl    c     4.874358   10.935298   -3.007465    0.000000    1.485000
   124  Cl    c     5.267188    8.436477   12.448288    0.000000    1.485000
   125  Cl    c    -1.168385    8.934253    8.435943    0.000000    1.485000
   126  Cl    c    -1.238651   -1.934975    1.600346    0.000000    1.485000
   127  Sc    c     0.936418    0.448377   -3.611610    0.000000    3.000000
   128  Cl    c     8.055528   -4.262314   -0.385101    0.000000    1.485000
   129  Cl    c     1.648563   10.316346   -2.388860    0.000000    1.485000
   130  Cl    c     5.225649    5.200481   -5.811906    0.000000    1.485000
   131  Cl    c    10.919714    7.552982   -3.756096    0.000000    1.485000
   132  Sc    c    -3.770507    5.401565    3.610368    0.000000    3.000000
   133  Cl    c    -3.335884    6.515440    5.813189    0.000000    1.485000
   134  Sc    c     1.890658   -2.701840   -1.805673    0.000000    3.000000
   135  Sc    c     2.767650    1.336285   12.680045    0.000000    3.000000
   136  Sc    c     6.571580   -4.089049    9.055735    0.000000    3.000000
   137  Cl    c     2.304248    2.038907   -4.986605    0.000000    1.485000
   138  Cl    c    15.193959    1.474743    2.440617    0.000000    1.485000
   139  Cl    c     9.536602   13.173517    2.436447    0.000000    1.485000
   140  Cl    c     1.323179    8.817188   11.281682    0.000000    1.485000
   141  Cl    c    10.574801   -4.418375    2.434006    0.000000    1.485000
   142  Cl    c     2.036768   13.160279    2.437884    0.000000    1.485000
   143  Cl    c     9.798447    2.050409   -4.975885    0.000000    1.485000
   144  Cl    c    -1.563432    0.587660    9.193726    0.000000    1.485000
   145  Sc    c    -1.889035   -0.915167    7.211270    0.000000    3.000000
   146  Cl    c    -1.567137    7.791447   -1.600374    0.000000    1.485000
   147  Cl    c    13.411346    0.608222    9.238011    0.000000    1.485000
   148  Cl    c     4.082085   -3.900248   -1.604645    0.000000    1.485000
   149  Cl    c     7.757847   12.309970    9.246314    0.000000    1.485000
   150  Cl    c    13.412163    7.823910   -1.561567    0.000000    1.485000
   151  Sc    c    14.067548    3.197881   -1.769362    0.000000    3.000000
   152  Cl    c     6.311878    5.319230   13.827676    0.000000    1.485000
   153  Cl    c     7.053512   13.318764   -0.364937    0.000000    1.485000
   154  Cl    c    13.749480   -1.897372    1.642717    0.000000    1.485000
   155  Cl    c    -4.082605    3.918704    1.606522    0.000000    1.485000
   156  Sc    c    10.275647    1.361014   12.648045    0.000000    3.000000
   157  Cl    c     2.299860   -5.175737    5.807730    0.000000    1.485000
   158  Cl    c     0.601584    2.568583   12.442241    0.000000    1.485000
   159  Cl    c     6.262310   -5.531667    7.031467    0.000000    1.485000
   160  Cl    c     9.530246    5.950924   13.237090    0.000000    1.485000
   161  Cl    c     4.864416    0.086847   13.239241    0.000000    1.485000
   162  Cl    c    11.970814   -2.765838    8.432372    0.000000    1.485000
   163  Cl    c    13.815720    8.955927    8.450314    0.000000    1.485000
   164  Cl    c     2.045772    5.935729   13.234266    0.000000    1.485000
   165  Cl    c    14.540910    9.728333    5.053203    0.000000    1.485000
   166  Cl    c     6.965668   -2.923243   11.234765    0.000000    1.485000
   167  Cl    c     4.223107   11.947624   10.439566    0.000000    1.485000
   168  Cl    c     9.793819   -5.154201    5.832944    0.000000    1.485000
   169  Cl    c    -2.286461   -2.045173    5.004999    0.000000    1.485000
   170  Cl    c    -0.191289   -1.434134   -2.402751    0.000000    1.485000
   171  Cl    c    15.589660    6.213946    7.065579    0.000000    1.485000
   172  Sc    c    13.117300    6.349034   -3.573023    0.000000    3.000000
   173  Sc    c     7.455947   14.449069    1.837975    0.000000    3.000000
   174  Sc    c     5.576952   13.540062    9.050953    0.000000    3.000000
   175  Cl    c    -1.243420    1.670725   -3.803441    0.000000    1.485000
   176  Cl    c    -3.019008    4.428864   -2.399983    0.000000    1.485000
   177  Cl    c     0.538400   -4.280350   -0.404836    0.000000    1.485000
   178  Sc    c     8.399677    4.065391   14.449014    0.000000    3.000000
   179  Cl    c    12.763215   12.063345    7.066845    0.000000    1.485000
   180  Sc    c    -1.881383    6.315340   -3.607070    0.000000    3.000000
   181  Cl    c    -1.205627   12.589447    3.041693    0.000000    1.485000
   182  Cl    c     8.075047   -0.687575   -5.833622    0.000000    1.485000
   183  Sc    c    -0.038336    7.203322   12.657319    0.000000    3.000000
   184  Cl    c    14.539679    6.117018   10.454456    0.000000    1.485000
   185  Sc    c     9.410135   -6.298905    3.637977    0.000000    3.000000
   186  Cl    c    16.644471    6.717127    3.049086    0.000000    1.485000
   187  Cl    c    -5.107034    3.810835    5.007317    0.000000    1.485000
   188  Cl    c    -0.186891   -5.041508    3.006559    0.000000    1.485000
   189  Sc    c    -4.713454    4.944369    7.214379    0.000000    3.000000
   190  Cl    c    -4.061539    0.314269    7.005101    0.000000    1.485000
   191  Cl    c    13.755194    1.710307   -3.763794    0.000000    1.485000
   192  Sc    c    -3.760231    1.792501    9.013513    0.000000    3.000000
   193  Sc    c     1.898521   -6.310097    3.607211    0.000000    3.000000
   194  Cl    c     3.094594    2.845333   14.647564    0.000000    1.485000
   195  Cl    c     0.268441   12.302692    9.241903    0.000000    1.485000
   196  Cl    c     8.767090   -5.271712    9.225449    0.000000    1.485000
   197  Cl    c     3.096738   13.666236   -1.576971    0.000000    1.485000
   198  Cl    c    11.591351   -3.900627   -1.580744    0.000000    1.485000
   199  Cl    c     8.755497    5.568781   -6.985760    0.000000    1.485000
   200  Sc    c     2.783228   12.215052   -3.594604    0.000000    3.000000
   201  Sc    c     6.584218    6.793644   -7.215784    0.000000    3.000000
   202  Cl    c    15.591082    9.822089    1.663876    0.000000    1.485000
   203  Cl    c    -3.333129   10.127343    0.414292    0.000000    1.485000
   204  Cl    c    -0.509100    7.892640   -4.991929    0.000000    1.485000
   205  Cl    c    17.366270    3.877680    5.051768    0.000000    1.485000
   206  Cl    c     9.142201   -0.529013   13.840435    0.000000    1.485000
   207  Cl    c    13.818551   12.568480    3.049290    0.000000    1.485000
   208  Cl    c    15.198073    5.090918   -2.958283    0.000000    1.485000
   209  Cl    c    12.371117   10.939168   -2.961516    0.000000    1.485000
   210  Cl    c     4.226793   15.560415    5.038735    0.000000    1.485000
   211  Sc    c    -4.709533    8.553677    1.802760    0.000000    3.000000
   212  Cl    c     3.438584   -3.277217   12.432049    0.000000    1.485000
   213  Cl    c     5.268088   15.657816    1.649365    0.000000    1.485000
   214  Sc    c     0.904748    4.055771   14.446068    0.000000    3.000000
   215  Sc    c    14.952030   10.851389    7.260338    0.000000    3.000000
   216  Cl    c    16.638493    3.107632    8.449145    0.000000    1.485000
   217  Sc    c     8.447723   -6.755628    7.224290    0.000000    3.000000
   218  Cl    c    -2.222335   12.039145    7.030767    0.000000    1.485000
   219  Cl    c     9.094246   -4.154977   -3.785716    0.000000    1.485000
   220  Cl    c    11.714500   11.967124   10.456959    0.000000    1.485000
   221  Sc    c    10.289726   12.206271   -3.565833    0.000000    3.000000
   222  Sc    c    15.903822    7.701750    9.064661    0.000000    3.000000
   223  Cl    c     3.492463   14.791255    8.433240    0.000000    1.485000
   224  Cl    c    12.711195    5.225306   -5.775638    0.000000    1.485000
   225  Cl    c    12.760551    8.451573   12.465195    0.000000    1.485000
   226  Cl    c    -4.397490    6.431807    9.207475    0.000000    1.485000
   227  Cl    c    -4.389584   10.034035    3.802176    0.000000    1.485000
   228  Cl    c     1.259355   -5.268937    9.197183    0.000000    1.485000
   229  Cl    c     5.213365   -5.658180   10.447902    0.000000    1.485000
   230  Cl    c     1.644478   -0.554407   13.863808    0.000000    1.485000
   231  Cl    c    10.584816    2.851803   14.639814    0.000000    1.485000
   232  Cl    c     7.758594    8.700810   14.646449    0.000000    1.485000
   233  Cl    c     4.088407   -7.514104    3.795793    0.000000    1.485000
   234  Cl    c    16.243748   -1.633391    3.838259    0.000000    1.485000
   235  Cl    c     1.262713    5.557064   -7.003202    0.000000    1.485000
   236  Cl    c    16.243134    1.976653   -1.563265    0.000000    1.485000
   237  Cl    c    -0.425928   13.301295   -0.375340    0.000000    1.485000
   238  Cl    c     4.086977   -0.291412   -6.999219    0.000000    1.485000
   239  Cl    c     7.761423   15.918833    3.844384    0.000000    1.485000
   240  Cl    c     7.326309    2.205375   -7.780294    0.000000    1.485000
   241  Cl    c    10.592852   13.679291   -1.558466    0.000000    1.485000
   242  Sc    c    -0.932325   -4.064810    9.012065    0.000000    3.000000
   243  Cl    c    -3.349844    2.918649   11.214726    0.000000    1.485000
   244  Cl    c    15.190094   -2.136789    7.839545    0.000000    1.485000
   245  Cl    c     5.132523   -3.803607   -4.989839    0.000000    1.485000
   246  Cl    c     6.711537   15.418256    7.842616    0.000000    1.485000
   247  Sc    c    -0.033329   14.449859    1.817011    0.000000    3.000000
   248  Sc    c     9.416411    0.946107   -7.203098    0.000000    3.000000
   249  Cl    c    -5.844402    6.665959    3.003198    0.000000    1.485000
   250  Cl    c     0.548039   -0.669972   -5.814233    0.000000    1.485000
   251  Sc    c     5.576732    9.924533   14.453465    0.000000    3.000000
   252  Cl    c    -0.525112   -2.933990   11.211575    0.000000    1.485000
   253  Cl    c     1.594506   -4.176035   -3.805715    0.000000    1.485000
   254  Cl    c    12.358883    0.102363   13.241884    0.000000    1.485000
   255  Cl    c     5.130638   -7.417912    0.407414    0.000000    1.485000
   256  Cl    c     6.709980   11.807139   13.245859    0.000000    1.485000
   257  Cl    c     8.098857   13.412322   -3.752449    0.000000    1.485000
   258  Sc    c    -3.754551    9.015468   -1.796149    0.000000    3.000000
   259  Sc    c     1.902913    0.923980   -7.206459    0.000000    3.000000
   260  Cl    c     7.039705    2.481803   15.839375    0.000000    1.485000
   261  Cl    c    14.804822   -1.388738   -2.370446    0.000000    1.485000
   262  Cl    c    -3.016871   -2.801159    8.408334    0.000000    1.485000
   263  Cl    c    -5.101535    7.423070   -0.399967    0.000000    1.485000
   264  Sc    c    15.904911   11.312732    3.660471    0.000000    3.000000
   265  Cl    c    -1.179740    5.304570   13.821547    0.000000    1.485000
   266  Cl    c     8.027715   -7.867336    5.016415    0.000000    1.485000
   267  Sc    c     3.779174   -5.399811   -3.603117    0.000000    3.000000
   268  Cl    c     4.492608    8.046837   -7.789489    0.000000    1.485000
   269  Cl    c     2.387108   11.062869   -5.781515    0.000000    1.485000
   270  Sc    c     8.415083   14.907951   -1.759971    0.000000    3.000000
   271  Sc    c    17.778394    4.999217    7.259010    0.000000    3.000000
   272  Sc    c     3.743158   -1.810221   14.445769    0.000000    3.000000
   273  Sc    c     5.614729   -4.506700   12.644461    0.000000    3.000000
   274  Cl    c     3.491105   11.175699   13.834376    0.000000    1.485000
   275  Cl    c    10.918762   -3.263901   12.446823    0.000000    1.485000
   276  Cl    c     9.882271   11.076783   -5.766451    0.000000    1.485000
   277  Cl    c    -1.235946   -5.538659    7.005066    0.000000    1.485000
   278  Sc    c     0.942780   -6.766209    7.206249    0.000000    3.000000
   279  Sc    c    15.940608   -3.116792    1.833796    0.000000    3.000000
   280  Cl    c    -2.215353    8.416681   12.429827    0.000000    1.485000
   281  Sc    c     4.626781   13.073904   12.650246    0.000000    3.000000
   282  Cl    c     9.086641   -7.755804    1.627056    0.000000    1.485000
   283  Cl    c    17.367204    7.486994   -0.350156    0.000000    1.485000
   284  Cl    c     3.040535    2.820681   -8.385680    0.000000    1.485000
   285  Cl    c    10.987091   14.804050    8.450095    0.000000    1.485000
   286  Cl    c     8.816897   16.028027    0.447504    0.000000    1.485000
   287  Cl    c    -5.842042    3.050819    8.403929    0.000000    1.485000
   288  Cl    c    -2.270252    5.183394   -5.805341    0.000000    1.485000
   289  Sc    c    14.059891   -4.026883    9.045965    0.000000    3.000000
   290  Cl    c    18.414422    3.971413    1.662099    0.000000    1.485000
   291  Sc    c    17.781233    8.610200    1.855110    0.000000    3.000000
   292  Cl    c    13.808519    5.344165   13.849918    0.000000    1.485000
   293  Cl    c    -2.612010   10.902392   -2.984664    0.000000    1.485000
   294  Cl    c     4.219091    8.335037   15.839138    0.000000    1.485000
   295  Cl    c     5.864485   -6.647437   -2.985036    0.000000    1.485000
   296  Cl    c    14.800313   -5.000167    3.032985    0.000000    1.485000
   297  Cl    c     5.983644   14.658191   11.253860    0.000000    1.485000
   298  Cl    c    14.465267    7.939120   -4.960727    0.000000    1.485000
   299  Cl    c    11.714301   15.575964    5.053447    0.000000    1.485000
   300  Sc    c    18.732092    5.459536    3.659240    0.000000    3.000000
   301  Cl    c    13.747615   -5.503554    7.041452    0.000000    1.485000
   302  Sc    c    13.075613   13.552996    9.065772    0.000000    3.000000
   303  Cl    c     1.595183   -7.779711    1.600844    0.000000    1.485000
   304  Sc    c     5.582909   17.151751    3.646484    0.000000    3.000000
   305  Cl    c    -5.177045   -1.585013    0.395300    0.000000    1.485000
   306  Cl    c     0.266751    8.684009   14.649606    0.000000    1.485000
   307  Cl    c    -4.061115    7.531867   -3.796054    0.000000    1.485000
   308  Cl    c     5.930592   -3.016702   14.635546    0.000000    1.485000
   309  Sc    c    14.948340    7.238519   12.663591    0.000000    3.000000
   310  Cl    c     0.281276   15.915679    3.822214    0.000000    1.485000
   311  Cl    c    17.034337    9.588580    7.861512    0.000000    1.485000
   312  Cl    c    11.586357   -7.513501    3.829679    0.000000    1.485000
   313  Sc    c    15.946834    0.494832   -3.571321    0.000000    3.000000
   314  Sc    c     4.628960   16.689764    7.245120    0.000000    3.000000
   315  Cl    c     5.921110   11.408915   -6.968299    0.000000    1.485000
   316  Cl    c    11.592546   -0.270257   -6.989417    0.000000    1.485000
   317  Sc    c     0.915663   14.897952   -1.776101    0.000000    3.000000
   318  Cl    c    15.582817    2.601344   12.464115    0.000000    1.485000
   319  Cl    c     0.595660   13.412746   -3.774683    0.000000    1.485000
   320  Cl    c     6.267124    5.297282   -9.195709    0.000000    1.485000
   321  Sc    c     8.456787    4.088819   -8.996225    0.000000    3.000000
   322  Cl    c     1.336063   16.019036    0.427236    0.000000    1.485000
   323  Cl    c     4.153789   13.782905   -4.979397    0.000000    1.485000
   324  Cl    c    10.546108    2.842938   -8.380860    0.000000    1.485000
   325  Cl    c     7.716188    8.688225   -8.389045    0.000000    1.485000
   326  Cl    c    -5.446399    9.528939    7.813210    0.000000    1.485000
   327  Cl    c     3.030033   -8.016548    7.810846    0.000000    1.485000
   328  Cl    c     8.796601    5.196304   16.646977    0.000000    1.485000
   329  Cl    c    17.283592   -1.522110    0.440956    0.000000    1.485000
   330  Sc    c    -0.921708    6.776359   -7.205530    0.000000    3.000000
   331  Sc    c    -1.921182   13.525447    9.038577    0.000000    3.000000
   332  Cl    c    10.982756   11.193939   13.849393    0.000000    1.485000
   333  Sc    c    11.279876   -5.383099   -3.591811    0.000000    3.000000
   334  Cl    c    14.543936   13.337102   -0.348501    0.000000    1.485000
   335  Cl    c     0.539852   -7.888533    4.999786    0.000000    1.485000
   336  Cl    c    -0.178115    2.188927   -7.798011    0.000000    1.485000
   337  Sc    c    11.231288   -1.787094   14.453230    0.000000    3.000000
   338  Cl    c    -6.887549    6.166525    7.008951    0.000000    1.485000
   339  Cl    c    -2.623629    0.069725   13.209178    0.000000    1.485000
   340  Cl    c    14.451840   -2.893446   11.245673    0.000000    1.485000
   341  Cl    c    -4.451802   -0.808425   -2.997873    0.000000    1.485000
   342  Cl    c    16.303679   12.437709    5.865068    0.000000    1.485000
   343  Cl    c    -5.104720    0.202734   10.404138    0.000000    1.485000
   344  Cl    c     2.645470   -7.278000   -2.395645    0.000000    1.485000
   345  Cl    c    15.522536   -4.233064   -0.371944    0.000000    1.485000
   346  Cl    c    18.411144    0.360180    7.061343    0.000000    1.485000
   347  Cl    c     6.328010   16.158724   -2.365109    0.000000    1.485000
   348  Cl    c    -6.225855   -1.672906    3.780279    0.000000    1.485000
   349  Cl    c    -6.224844    1.933736   -1.617363    0.000000    1.485000
   350  Cl    c    -3.398090   -3.915165   -1.621092    0.000000    1.485000
   351  Cl    c    18.084095    6.481137    9.259818    0.000000    1.485000
   352  Cl    c    15.256659   12.331028    9.261777    0.000000    1.485000
   353  Cl    c    18.084438   10.090141    3.858191    0.000000    1.485000
   354  Sc    c     3.775624   -9.010000    1.799859    0.000000    3.000000
   355  Cl    c    12.762389   15.669199    1.665783    0.000000    1.485000
   356  Cl    c    -7.281035    1.428104    2.399498    0.000000    1.485000
   357  Cl    c    -4.455617   -4.421568    2.400850    0.000000    1.485000
   358  Cl    c    19.128606    6.587054    5.863408    0.000000    1.485000
   359  Cl    c    16.299939    8.827288   11.268204    0.000000    1.485000
   360  Cl    c    12.691018   -5.605143   10.434024    0.000000    1.485000
   361  Cl    c     1.305896    5.185936   16.640456    0.000000    1.485000
   362  Cl    c    10.529732   -8.009633    7.819513    0.000000    1.485000
   363  Cl    c    -0.779005   15.395607    7.825117    0.000000    1.485000
   364  Cl    c    11.984037    8.071136   -7.764789    0.000000    1.485000
   365  Cl    c    12.618848   -3.779276   -4.976467    0.000000    1.485000
   366  Cl    c    -0.444492    2.460764   15.825620    0.000000    1.485000
   367  Cl    c    -3.263597   11.923833   10.422382    0.000000    1.485000
   368  Cl    c     7.304274   -8.630189    8.423836    0.000000    1.485000
   369  Cl    c    10.137271   -7.255351   -2.382016    0.000000    1.485000
   370  Cl    c     2.442409   14.284939   12.449160    0.000000    1.485000
   371  Sc    c     0.953698    4.074343   -9.009410    0.000000    3.000000
   372  Cl    c    17.354041    0.267208   10.450624    0.000000    1.485000
   373  Cl    c     7.699504   -5.760693   13.236578    0.000000    1.485000
   374  Sc    c    14.955189   14.463878    1.855760    0.000000    3.000000
   375  Cl    c     4.143920   -0.675909   16.639831    0.000000    1.485000
   376  Cl    c    -0.783658   11.780325   13.219370    0.000000    1.485000
   377  Cl    c    16.643957   10.327415   -2.351777    0.000000    1.485000
   378  Cl    c    12.608316   -7.385804    0.423555    0.000000    1.485000
   379  Cl    c     9.932559   14.301547   12.468252    0.000000    1.485000
   380  Sc    c    14.073845    6.813471   -7.171709    0.000000    3.000000
   381  Sc    c    -6.589640    7.647851    9.017880    0.000000    3.000000
   382  Sc    c     4.729409   -8.548464   -1.798615    0.000000    3.000000
   383  Cl    c    19.465828    0.865522    3.048603    0.000000    1.485000
   384  Sc    c    12.121230   13.091586   12.665875    0.000000    3.000000
   385  Cl    c    11.705043    8.355131   15.856028    0.000000    1.485000
   386  Cl    s     4.020136    3.895330    2.299954    0.000000   -2.485000
   387  Cl    s     4.051200    6.278680    5.834148    0.000000   -2.485000
   388  Cl    s     7.461080    1.399509    2.572577    0.000000   -2.485000
   389  Cl    s     4.424849    7.231814    2.551634    0.000000   -2.485000
   390  Cl    s     6.752770    3.897489    0.330596    0.000000   -2.485000
   391  Cl    s     2.303807    4.100676    5.145045    0.000000   -2.485000
   392  Cl    s     4.692146    0.679642    2.865649    0.000000   -2.485000
   393  Cl    s     4.612029    3.585137    7.859907    0.000000   -2.485000
   394  Cl    s     6.771578    0.491852    5.798638    0.000000   -2.485000
   395  Cl    s     9.952348    4.046091    5.077943    0.000000   -2.485000
   396  Cl    s     9.344585    6.721985    2.982943    0.000000   -2.485000
   397  Cl    s     8.248771    6.203051    7.185504    0.000000   -2.485000
   398  Cl    s     1.570240    6.820529    2.886500    0.000000   -2.485000
   399  Cl    s     5.207897    1.617701   -0.589524    0.000000   -2.485000
   400  Cl    s    11.070990    3.959911    1.793868    0.000000   -2.485000
   401  Cl    s     3.556853    0.297359    7.204426    0.000000   -2.485000
   402  Cl    s     9.345816    3.123897    8.380671    0.000000   -2.485000
   403  Cl    s     7.150107    9.879714    5.086512    0.000000   -2.485000
   404  Cl    s     1.821616    3.066149    8.463107    0.000000   -2.485000
   405  Cl    s     5.308156   -1.921927    5.126144    0.000000   -2.485000
   406  Cl    s    11.520753    6.383989    5.791673    0.000000   -2.485000
   407  Cl    s     2.455844    7.643815   -0.370001    0.000000   -2.485000
   408  Cl    s     4.668624    4.474978   -2.480261    0.000000   -2.485000
   409  Cl    s     5.734516    0.536636    9.113976    0.000000   -2.485000
   410  Cl    s     8.239878    9.801748    1.793959    0.000000   -2.485000
   411  Cl    s     2.941531    6.427953    9.159743    0.000000   -2.485000
   412  Cl    s     8.628998   -1.711812    3.723105    0.000000   -2.485000
   413  Cl    s     0.816078    6.237263    7.194841    0.000000   -2.485000
   414  Cl    s     6.486401   -1.877397    1.774857    0.000000   -2.485000
   415  Cl    s     2.845324    9.992076    3.653189    0.000000   -2.485000
   416  Cl    s     8.500936    1.899903   -1.750488    0.000000   -2.485000
   417  Cl    s     5.723736    7.776776   -1.736785    0.000000   -2.485000
   418  Cl    s     6.520907    8.967248    8.380473    0.000000   -2.485000
   419  Cl    s    -0.013236    1.407171    2.448190    0.000000   -2.485000
   420  Cl    s     9.979008    7.639349   -0.314636    0.000000   -2.485000
   421  Cl    s     4.017070    9.984620    0.338456    0.000000   -2.485000
   422  Cl    s     7.472183    5.042697   -2.966159    0.000000   -2.485000
   423  Cl    s     7.152234    6.273313   10.482160    0.000000   -2.485000
   424  Cl    s    12.150783    7.287132    2.479678    0.000000   -2.485000
   425  Cl    s    12.177542    0.887266    2.989023    0.000000   -2.485000
   426  Cl    s    11.074654    0.357608    7.183424    0.000000   -2.485000
   427  Cl    s    10.423570    6.445585    9.097064    0.000000   -2.485000
   428  Cl    s    13.250202    4.198381    3.696283    0.000000   -2.485000
   429  Cl    s    10.417251   10.045525    3.696289    0.000000   -2.485000
   430  Cl    s    -0.622946    4.084535    0.363564    0.000000   -2.485000
   431  Cl    s    12.150122    3.669407    7.873806    0.000000   -2.485000
   432  Cl    s     9.324401    9.524206    7.878596    0.000000   -2.485000
   433  Cl    s     1.100980   -1.666190    3.645105    0.000000   -2.485000
   434  Cl    s    -1.728507    4.165431    3.641680    0.000000   -2.485000
   435  Cl    s     1.087814    1.926308   -1.739901    0.000000   -2.485000
   436  Cl    s     7.462887   -2.215132    7.874645    0.000000   -2.485000
   437  Cl    s     4.001107    2.737333   11.187908    0.000000   -2.485000
   438  Cl    s    -0.636759    0.497278    5.749706    0.000000   -2.485000
   439  Cl    s     1.847503    9.520027    7.872609    0.000000   -2.485000
   440  Cl    s     2.188998   -1.739536    0.352990    0.000000   -2.485000
   441  Cl    s     9.697455   -1.715665    0.372794    0.000000   -2.485000
   442  Cl    s     0.681887    9.914051    1.712737    0.000000   -2.485000
   443  Cl    s     6.431661    1.686147   -3.781308    0.000000   -2.485000
   444  Cl    s     2.472725    0.350805   10.525120    0.000000   -2.485000
   445  Cl    s     4.664836   -2.789238    8.433072    0.000000   -2.485000
   446  Cl    s    12.804131    1.792927   -0.320146    0.000000   -2.485000
   447  Cl    s     6.523907   12.583828    2.989711    0.000000   -2.485000
   448  Cl    s     3.571785    7.572392   -3.672982    0.000000   -2.485000
   449  Cl    s    -0.336964    9.871124    5.085282    0.000000   -2.485000
   450  Cl    s     7.527091   -1.384428   -2.427744    0.000000   -2.485000
   451  Cl    s     5.426036   12.058172    7.189659    0.000000   -2.485000
   452  Cl    s     9.972942    0.418120   10.484975    0.000000   -2.485000
   453  Cl    s     8.692028   12.238037    5.791979    0.000000   -2.485000
   454  Cl    s    11.515245   10.000128    0.388709    0.000000   -2.485000
   455  Cl    s    12.183263    4.495805   -2.413010    0.000000   -2.485000
   456  Cl    s     2.821429   -0.830834   -2.938807    0.000000   -2.485000
   457  Cl    s    -0.002188    5.007451   -2.940011    0.000000   -2.485000
   458  Cl    s     8.687390    8.631743   11.195727    0.000000   -2.485000
   459  Cl    s    14.339383    4.150586    0.388770    0.000000   -2.485000
   460  Cl    s     8.249385    2.595581   12.586472    0.000000   -2.485000
   461  Cl    s    12.801804   -1.817471    5.081588    0.000000   -2.485000
   462  Cl    s     2.823614   -4.442649    2.451080    0.000000   -2.485000
   463  Cl    s    -0.299223    6.267888   10.479566    0.000000   -2.485000
   464  Cl    s    -2.826630    7.241682    2.450455    0.000000   -2.485000
   465  Cl    s     7.545432   -4.960255    2.984743    0.000000   -2.485000
   466  Cl    s    11.506640    2.778534   11.188702    0.000000   -2.485000
   467  Cl    s    -2.817465    0.838601    2.957529    0.000000   -2.485000
   468  Cl    s    14.338348    0.540042    5.789969    0.000000   -2.485000
   469  Cl    s     9.358117   10.346387   -2.407357    0.000000   -2.485000
   470  Cl    s    -2.189888    1.747826   -0.359027    0.000000   -2.485000
   471  Cl    s     1.205944   12.228210    5.792775    0.000000   -2.485000
   472  Cl    s    10.332990   -0.830213   -2.934330    0.000000   -2.485000
   473  Cl    s    -1.077144   -1.917157    1.744490    0.000000   -2.485000
   474  Cl    s    -0.955714    8.976853    8.400127    0.000000   -2.485000
   475  Cl    s     8.173958   -4.085557   -0.329669    0.000000   -2.485000
   476  Cl    s    14.983268    1.434774    2.478247    0.000000   -2.485000
   477  Cl    s     6.850215    7.757149   -5.048920    0.000000   -2.485000
   478  Cl    s     4.665406   10.886556   -2.964444    0.000000   -2.485000
   479  Cl    s    -0.005529   -2.205829    7.847351    0.000000   -2.485000
   480  Cl    s    -2.827975    3.644324    7.850929    0.000000   -2.485000
   481  Cl    s     1.860182   10.350302   -2.425650    0.000000   -2.485000
   482  Cl    s     5.336689    5.377493   -5.751483    0.000000   -2.485000
   483  Cl    s     9.327723   13.130453    2.477322    0.000000   -2.485000
   484  Cl    s    11.079610    7.571961   -3.615394    0.000000   -2.485000
   485  Cl    s    13.247531    0.591534    9.095634    0.000000   -2.485000
   486  Cl    s     5.427713    8.451226   12.587273    0.000000   -2.485000
   487  Cl    s     1.210509    8.640537   11.217554    0.000000   -2.485000
   488  Cl    s    10.360812   -4.450964    2.467813    0.000000   -2.485000
   489  Cl    s     7.596965   12.291205    9.101577    0.000000   -2.485000
   490  Cl    s    -3.449781    6.343072    5.758702    0.000000   -2.485000
   491  Cl    s    13.249858    7.808864   -1.704106    0.000000   -2.485000
   492  Cl    s     2.191759    1.865932   -5.036496    0.000000   -2.485000
   493  Cl    s     1.827710   13.117765    2.478151    0.000000   -2.485000
   494  Cl    s     9.684046    1.873253   -5.027265    0.000000   -2.485000
   495  Cl    s    -1.723922    0.568524    9.053254    0.000000   -2.485000
   496  Cl    s    -3.917421    3.932232    1.747746    0.000000   -2.485000
   497  Cl    s     3.920925   -3.915761   -1.743540    0.000000   -2.485000
   498  Cl    s     6.518683    5.362098   13.789961    0.000000   -2.485000
   499  Cl    s    -1.724662    7.774231   -1.740428    0.000000   -2.485000
   500  Cl    s    -2.171261   -1.867327    5.054786    0.000000   -2.485000
   501  Cl    s     9.321055    5.911797   13.275969    0.000000   -2.485000
   502  Cl    s     7.165258   13.491466   -0.311132    0.000000   -2.485000
   503  Cl    s    13.907776   -1.878626    1.784415    0.000000   -2.485000
   504  Cl    s     0.017843   -1.392235   -2.442367    0.000000   -2.485000
   505  Cl    s     0.763763    2.583235   12.584298    0.000000   -2.485000
   506  Cl    s     6.422550   -5.514153    7.175396    0.000000   -2.485000
   507  Cl    s     4.655024    0.047495   13.278264    0.000000   -2.485000
   508  Cl    s     6.852829   -3.099987   11.180392    0.000000   -2.485000
   509  Cl    s    12.176609   -2.722412    8.393012    0.000000   -2.485000
   510  Cl    s     1.836823    5.897032   13.272993    0.000000   -2.485000
   511  Cl    s     2.188383   -5.348709    5.753941    0.000000   -2.485000
   512  Cl    s     9.681488   -5.330417    5.778170    0.000000   -2.485000
   513  Cl    s     4.335708   12.121018   10.490023    0.000000   -2.485000
   514  Cl    s    14.021652    8.996990    8.412626    0.000000   -2.485000
   515  Cl    s    14.653679    9.901453    5.105534    0.000000   -2.485000
   516  Cl    s    -1.081107    1.689023   -3.659079    0.000000   -2.485000
   517  Cl    s    15.749280    6.230975    7.205794    0.000000   -2.485000
   518  Cl    s     0.653540   -4.103293   -0.351424    0.000000   -2.485000
   519  Cl    s    -2.808207    4.466065   -2.437607    0.000000   -2.485000
   520  Cl    s    -0.991236   12.620072    3.005549    0.000000   -2.485000
   521  Cl    s     8.185375   -0.509051   -5.769292    0.000000   -2.485000
   522  Cl    s     0.021487   -4.997483    2.965379    0.000000   -2.485000
   523  Cl    s    -4.992594    3.988065    5.056852    0.000000   -2.485000
   524  Cl    s    -3.899072    0.329322    7.147077    0.000000   -2.485000
   525  Cl    s    12.923436   12.080037    7.206946    0.000000   -2.485000
   526  Cl    s     2.931721    2.823607   14.503391    0.000000   -2.485000
   527  Cl    s     8.600348   -5.288004    9.084907    0.000000   -2.485000
   528  Cl    s    14.652710    6.290644   10.506383    0.000000   -2.485000
   529  Cl    s    13.914285    1.729166   -3.621796    0.000000   -2.485000
   530  Cl    s     0.108952   12.281028    9.095570    0.000000   -2.485000
   531  Cl    s    16.850128    6.757963    3.011217    0.000000   -2.485000
   532  Cl    s    11.425391   -3.912884   -1.720825    0.000000   -2.485000
   533  Cl    s    14.988189    5.048575   -2.920243    0.000000   -2.485000
   534  Cl    s     2.936498   13.648603   -1.720957    0.000000   -2.485000
   535  Cl    s     8.593147    5.554158   -7.127732    0.000000   -2.485000
   536  Cl    s    12.161664   10.896241   -2.921958    0.000000   -2.485000
   537  Cl    s    15.751104    9.839360    1.804318    0.000000   -2.485000
   538  Cl    s    -3.447902    9.953543    0.361918    0.000000   -2.485000
   539  Cl    s     9.348722   -0.485941   13.801148    0.000000   -2.485000
   540  Cl    s    -0.623498    7.718762   -5.042640    0.000000   -2.485000
   541  Cl    s    17.479563    4.051303    5.104186    0.000000   -2.485000
   542  Cl    s    10.421945    2.833628   14.497102    0.000000   -2.485000
   543  Cl    s     5.429889   15.673676    1.789189    0.000000   -2.485000
   544  Cl    s    -2.057397   12.052705    7.171717    0.000000   -2.485000
   545  Cl    s     9.254593   -4.134720   -3.640336    0.000000   -2.485000
   546  Cl    s     7.596662    8.682484   14.502622    0.000000   -2.485000
   547  Cl    s     4.339184   15.733844    5.090792    0.000000   -2.485000
   548  Cl    s    14.024710   12.608516    3.011981    0.000000   -2.485000
   549  Cl    s     3.599365   -3.261306   12.574823    0.000000   -2.485000
   550  Cl    s    16.079967   -1.648498    3.696473    0.000000   -2.485000
   551  Cl    s     5.329594   -5.479286   10.495318    0.000000   -2.485000
   552  Cl    s     1.853678   -0.507881   13.821141    0.000000   -2.485000
   553  Cl    s     3.700170   14.831193    8.396419    0.000000   -2.485000
   554  Cl    s    16.080288    1.961835   -1.705107    0.000000   -2.485000
   555  Cl    s    14.980107   -2.175816    7.877349    0.000000   -2.485000
   556  Cl    s     7.600796   15.901198    3.700572    0.000000   -2.485000
   557  Cl    s    -5.633388    6.705088    2.965379    0.000000   -2.485000
   558  Cl    s    12.823350    5.399012   -5.720497    0.000000   -2.485000
   559  Cl    s     1.097254   -5.286328    9.056638    0.000000   -2.485000
   560  Cl    s    10.431453   13.662463   -1.701550    0.000000   -2.485000
   561  Cl    s     0.661253   -0.493285   -5.756764    0.000000   -2.485000
   562  Cl    s    16.844783    3.148819    8.411088    0.000000   -2.485000
   563  Cl    s     3.926231   -7.530315    3.655942    0.000000   -2.485000
   564  Cl    s     6.503325   15.376220    7.882726    0.000000   -2.485000
   565  Cl    s    -4.556801    6.412645    9.065427    0.000000   -2.485000
   566  Cl    s    -0.313362   13.477465   -0.321853    0.000000   -2.485000
   567  Cl    s     7.534711    2.245091   -7.819561    0.000000   -2.485000
   568  Cl    s    11.827405   12.140617   10.508467    0.000000   -2.485000
   569  Cl    s     1.754660   -4.156297   -3.660216    0.000000   -2.485000
   570  Cl    s    -4.548714   10.015882    3.660558    0.000000   -2.485000
   571  Cl    s    -3.462463    2.744420   11.160235    0.000000   -2.485000
   572  Cl    s    12.920520    8.468380   12.605734    0.000000   -2.485000
   573  Cl    s     3.926718   -0.307141   -7.139155    0.000000   -2.485000
   574  Cl    s    -2.807633   -2.757637    8.368041    0.000000   -2.485000
   575  Cl    s     1.103053    5.540991   -7.143039    0.000000   -2.485000
   576  Cl    s    12.149632    0.063366   13.280057    0.000000   -2.485000
   577  Cl    s     8.260588   13.429481   -3.611892    0.000000   -2.485000
   578  Cl    s     5.020162   -3.977260   -5.041441    0.000000   -2.485000
   579  Cl    s     6.501391   11.766052   13.285078    0.000000   -2.485000
   580  Cl    s    -0.969028    5.348553   13.784524    0.000000   -2.485000
   581  Cl    s    -4.987832    7.599184   -0.346441    0.000000   -2.485000
   582  Cl    s     8.145533   -7.691211    5.069279    0.000000   -2.485000
   583  Cl    s     7.153585    2.656567   15.890025    0.000000   -2.485000
   584  Cl    s    -0.637738   -3.108063   11.157335    0.000000   -2.485000
   585  Cl    s     5.018258   -7.591469    0.355372    0.000000   -2.485000
   586  Cl    s     4.702189    8.086368   -7.827038    0.000000   -2.485000
   587  Cl    s    15.011033   -1.347791   -2.408891    0.000000   -2.485000
   588  Cl    s     2.500872   11.238683   -5.726411    0.000000   -2.485000
   589  Cl    s     3.698990   11.216953   13.797064    0.000000   -2.485000
   590  Cl    s    -1.074664   -5.521640    7.147843    0.000000   -2.485000
   591  Cl    s    -5.631979    3.093144    8.365416    0.000000   -2.485000
   592  Cl    s     8.701336   15.851352    0.395122    0.000000   -2.485000
   593  Cl    s     9.994962   11.250726   -5.712453    0.000000   -2.485000
   594  Cl    s    -2.052341    8.431773   12.571865    0.000000   -2.485000
   595  Cl    s     9.247600   -7.737758    1.771059    0.000000   -2.485000
   596  Cl    s    -2.157431    5.359614   -5.749567    0.000000   -2.485000
   597  Cl    s    11.078802   -3.247251   12.587756    0.000000   -2.485000
   598  Cl    s     5.868989   14.481857   11.198898    0.000000   -2.485000
   599  Cl    s     2.833304    2.777787   -8.347836    0.000000   -2.485000
   600  Cl    s    14.350764    7.762238   -5.011325    0.000000   -2.485000
   601  Cl    s    11.193620   14.845309    8.412539    0.000000   -2.485000
   602  Cl    s    17.480517    7.660582   -0.297527    0.000000   -2.485000
   603  Cl    s    -3.897069    7.547908   -3.653438    0.000000   -2.485000
   604  Cl    s    16.825292    9.547504    7.900384    0.000000   -2.485000
   605  Cl    s    18.574592    3.988672    1.802591    0.000000   -2.485000
   606  Cl    s     5.656383   -6.687358   -2.948557    0.000000   -2.485000
   607  Cl    s     1.755539   -7.761591    1.744786    0.000000   -2.485000
   608  Cl    s     5.766741   -3.034566   14.492550    0.000000   -2.485000
   609  Cl    s     4.332645    8.509608   15.890064    0.000000   -2.485000
   610  Cl    s    -2.818510   10.859534   -2.945765    0.000000   -2.485000
   611  Cl    s    14.015318    5.385427   13.812359    0.000000   -2.485000
   612  Cl    s     0.761695   13.428419   -3.633084    0.000000   -2.485000
   613  Cl    s     6.429790    5.317812   -9.050859    0.000000   -2.485000
   614  Cl    s     0.106188    8.663894   14.502989    0.000000   -2.485000
   615  Cl    s    15.006764   -4.958345    2.993951    0.000000   -2.485000
   616  Cl    s    11.420863   -7.526470    3.687889    0.000000   -2.485000
   617  Cl    s    13.907262   -5.486217    7.183033    0.000000   -2.485000
   618  Cl    s     1.218773   15.841870    0.375508    0.000000   -2.485000
   619  Cl    s    10.335488    2.798565   -8.342196    0.000000   -2.485000
   620  Cl    s    11.827066   15.749596    5.106044    0.000000   -2.485000
   621  Cl    s     4.036684   13.604750   -5.029049    0.000000   -2.485000
   622  Cl    s     0.120166   15.895642    3.678229    0.000000   -2.485000
   623  Cl    s     7.506005    8.642645   -8.348544    0.000000   -2.485000
   624  Cl    s    11.428055   -0.285366   -7.130139    0.000000   -2.485000
   625  Cl    s     0.655391   -7.711589    5.051703    0.000000   -2.485000
   626  Cl    s     8.683318    5.019936   16.591750    0.000000   -2.485000
[...]
    595 z          1.764018      1.771059     0.007041    Cartesian    0.40
    596 x         -2.161550     -2.157431     0.004119    Cartesian   -0.19
    596 y          5.364544      5.359614    -0.004930    Cartesian   -0.09
    596 z         -5.750720     -5.749567     0.001153    Cartesian   -0.02
    597 x         11.079712     11.078802    -0.000910    Cartesian   -0.01
    597 y         -3.251039     -3.247251     0.003788    Cartesian   -0.12
    597 z         12.588552     12.587756    -0.000796    Cartesian   -0.01
    598 x          5.867932      5.868989     0.001057    Cartesian    0.02
    598 y         14.482271     14.481857    -0.000414    Cartesian   -0.00
    598 z         11.200384     11.198898    -0.001486    Cartesian   -0.01
    599 x          2.834134      2.833304    -0.000830    Cartesian   -0.03
    599 y          2.772400      2.777787     0.005387    Cartesian    0.19
    599 z         -8.357934     -8.347836     0.010098    Cartesian   -0.12
    600 x         14.356709     14.350764    -0.005945    Cartesian   -0.04
    600 y          7.760720      7.762238     0.001518    Cartesian    0.02
    600 z         -5.012793     -5.011325     0.001468    Cartesian   -0.03
    601 x         11.194528     11.193620    -0.000908    Cartesian   -0.01
    601 y         14.851541     14.845309    -0.006232    Cartesian   -0.04
    601 z          8.418916      8.412539    -0.006378    Cartesian   -0.08
    602 x         17.487006     17.480517    -0.006489    Cartesian   -0.04
    602 y          7.658082      7.660582     0.002500    Cartesian    0.03
    602 z         -0.299078     -0.297527     0.001551    Cartesian   -0.52
    603 x         -3.895037     -3.897069    -0.002032    Cartesian    0.05
    603 y          7.549094      7.547908    -0.001186    Cartesian   -0.02
    603 z         -3.651666     -3.653438    -0.001772    Cartesian    0.05
    604 x         16.823504     16.825292     0.001787    Cartesian    0.01
    604 y          9.546972      9.547504     0.000532    Cartesian    0.01
    604 z          7.902492      7.900384    -0.002108    Cartesian   -0.03
    605 x         18.579550     18.574592    -0.004958    Cartesian   -0.03
    605 y          3.990288      3.988672    -0.001616    Cartesian   -0.04
    605 z          1.798489      1.802591     0.004101    Cartesian    0.23
    606 x          5.656604      5.656383    -0.000221    Cartesian   -0.00
    606 y         -6.691770     -6.687358     0.004412    Cartesian   -0.07
    606 z         -2.956514     -2.948557     0.007956    Cartesian   -0.27
    607 x          1.753465      1.755539     0.002075    Cartesian    0.12
    607 y         -7.767420     -7.761591     0.005829    Cartesian   -0.08
    607 z          1.748268      1.744786    -0.003482    Cartesian   -0.20
    608 x          5.757149      5.766741     0.009591    Cartesian    0.17
    608 y         -3.036505     -3.034566     0.001939    Cartesian   -0.06
    608 z         14.485496     14.492550     0.007055    Cartesian    0.05
    609 x          4.331543      4.332645     0.001101    Cartesian    0.03
    609 y          8.509616      8.509608    -0.000008    Cartesian   -0.00
    609 z         15.896863     15.890064    -0.006799    Cartesian   -0.04
    610 x         -2.821490     -2.818510     0.002980    Cartesian   -0.11
    610 y         10.865261     10.859534    -0.005727    Cartesian   -0.05
    610 z         -2.952056     -2.945765     0.006291    Cartesian   -0.21
    611 x         14.016998     14.015318    -0.001680    Cartesian   -0.01
    611 y          5.387370      5.385427    -0.001943    Cartesian   -0.04
    611 z         13.820336     13.812359    -0.007977    Cartesian   -0.06
    612 x          0.771648      0.761695    -0.009953    Cartesian   -1.29
    612 y         13.419112     13.428419     0.009307    Cartesian    0.07
    612 z         -3.634430     -3.633084     0.001346    Cartesian   -0.04
    613 x          6.427272      6.429790     0.002519    Cartesian    0.04
    613 y          5.326251      5.317812    -0.008439    Cartesian   -0.16
    613 z         -9.040308     -9.050859    -0.010550    Cartesian    0.12
    614 x          0.105087      0.106188     0.001101    Cartesian    1.05
    614 y          8.668182      8.663894    -0.004288    Cartesian   -0.05
    614 z         14.488468     14.502989     0.014521    Cartesian    0.10
    615 x         15.009498     15.006764    -0.002735    Cartesian   -0.02
    615 y         -4.963681     -4.958345     0.005337    Cartesian   -0.11
    615 z          2.994316      2.993951    -0.000365    Cartesian   -0.01
    616 x         11.416334     11.420863     0.004529    Cartesian    0.04
    616 y         -7.517540     -7.526470    -0.008931    Cartesian    0.12
    616 z          3.676711      3.687889     0.011178    Cartesian    0.30
    617 x         13.909304     13.907262    -0.002042    Cartesian   -0.01
    617 y         -5.491556     -5.486217     0.005339    Cartesian   -0.10
    617 z          7.184160      7.183033    -0.001127    Cartesian   -0.02
    618 x          1.208370      1.218773     0.010404    Cartesian    0.86
    618 y         15.835907     15.841870     0.005963    Cartesian    0.04
    618 z          0.377336      0.375508    -0.001828    Cartesian   -0.48
    619 x         10.326850     10.335488     0.008638    Cartesian    0.08
    619 y          2.790074      2.798565     0.008491    Cartesian    0.30
    619 z         -8.342184     -8.342196    -0.000012    Cartesian    0.00
    620 x         11.831382     11.827066    -0.004316    Cartesian   -0.04
    620 y         15.750942     15.749596    -0.001347    Cartesian   -0.01
    620 z          5.106800      5.106044    -0.000756    Cartesian   -0.01
    621 x          4.037962      4.036684    -0.001278    Cartesian   -0.03
    621 y         13.595390     13.604750     0.009361    Cartesian    0.07
    621 z         -5.027057     -5.029049    -0.001992    Cartesian    0.04
    622 x          0.112209      0.120166     0.007957    Cartesian    7.09
    622 y         15.891835     15.895642     0.003807    Cartesian    0.02
    622 z          3.682655      3.678229    -0.004427    Cartesian   -0.12
    623 x          7.500819      7.506005     0.005186    Cartesian    0.07
    623 y          8.642417      8.642645     0.000227    Cartesian    0.00
    623 z         -8.340698     -8.348544    -0.007846    Cartesian    0.09
    624 x         11.423457     11.428055     0.004598    Cartesian    0.04
    624 y         -0.293886     -0.285366     0.008520    Cartesian   -2.90
    624 z         -7.129101     -7.130139    -0.001038    Cartesian    0.01
    625 x          0.657359      0.655391    -0.001969    Cartesian   -0.30
    625 y         -7.711453     -7.711589    -0.000136    Cartesian    0.00
    625 z          5.053607      5.051703    -0.001904    Cartesian   -0.04
    626 x          8.690402      8.683318    -0.007084    Cartesian   -0.08
    626 y          5.018100      5.019936     0.001835    Cartesian    0.04
    626 z         16.601804     16.591750    -0.010054    Cartesian   -0.06
    627 x          5.771394      5.761120    -0.010275    Cartesian   -0.18
    627 y         11.410801     11.393551    -0.017251    Cartesian   -0.15
    627 z         -7.126129     -7.111079     0.015050    Cartesian   -0.21
    628 x         -5.298968     -5.290083     0.008886    Cartesian   -0.17
    628 y         -1.756471     -1.758175    -0.001703    Cartesian    0.10
    628 z          0.341378      0.342610     0.001232    Cartesian    0.36
    629 x         17.179180     17.169711    -0.009469    Cartesian   -0.06
    629 y         -1.703451     -1.698552     0.004899    Cartesian   -0.29
    629 z          0.388627      0.389139     0.000512    Cartesian    0.13
    630 x         16.190240     16.189350    -0.000890    Cartesian   -0.01
    630 y         12.259427     12.261242     0.001815    Cartesian    0.01
    630 z          5.811741      5.812120     0.000378    Cartesian    0.01
    631 x         -6.728190     -6.724214     0.003976    Cartesian   -0.06
    631 y          6.177785      6.180859     0.003075    Cartesian    0.05
    631 z          7.155632      7.150562    -0.005071    Cartesian   -0.07
    632 x          0.031189      0.031133    -0.000056    Cartesian   -0.18
    632 y          2.224625      2.228112     0.003487    Cartesian    0.16
    632 z         -7.842996     -7.836281     0.006715    Cartesian   -0.09
    633 x          2.823450      2.822254    -0.001196    Cartesian   -0.04
    633 y         -8.063080     -8.055762     0.007317    Cartesian   -0.09
    633 z          7.850784      7.847948    -0.002836    Cartesian   -0.04
    634 x         15.746396     15.742696    -0.003700    Cartesian   -0.02
    634 y          2.618979      2.618418    -0.000561    Cartesian   -0.02
    634 z         12.605788     12.604880    -0.000908    Cartesian   -0.01
    635 x         17.920111     17.921550     0.001439    Cartesian    0.01
    635 y          6.463012      6.464389     0.001377    Cartesian    0.02
    635 z          9.115575      9.117157     0.001582    Cartesian    0.02
    636 x         11.190967     11.189796    -0.001171    Cartesian   -0.01
    636 y         11.239714     11.235009    -0.004705    Cartesian   -0.04
    636 z         13.821822     13.812266    -0.009556    Cartesian   -0.07
    637 x         -4.998265     -4.989902     0.008362    Cartesian   -0.17
    637 y          0.381408      0.380024    -0.001383    Cartesian   -0.36
    637 z         10.459485     10.454349    -0.005136    Cartesian   -0.05
    638 x         -5.654643     -5.652556     0.002088    Cartesian   -0.04
    638 y          9.493951      9.488373    -0.005579    Cartesian   -0.06
    638 z          7.855243      7.851831    -0.003412    Cartesian   -0.04
    639 x         15.094080     15.094751     0.000671    Cartesian    0.00
    639 y         12.315356     12.313692    -0.001664    Cartesian   -0.01
    639 z          9.117061      9.118767     0.001706    Cartesian    0.02
    640 x         14.346026     14.338658    -0.007368    Cartesian   -0.05
    640 y         -3.074760     -3.069473     0.005288    Cartesian   -0.17
    640 z         11.195926     11.191306    -0.004619    Cartesian   -0.04
    641 x         17.923672     17.922322    -0.001351    Cartesian   -0.01
    641 y         10.074839     10.073419    -0.001420    Cartesian   -0.01
    641 z          3.712669      3.715611     0.002942    Cartesian    0.08
    642 x          2.853659      2.853675     0.000016    Cartesian    0.00
    642 y         -7.239545     -7.235357     0.004188    Cartesian   -0.06
    642 z         -2.441576     -2.435872     0.005704    Cartesian   -0.23
    643 x         16.186679     16.186075    -0.000604    Cartesian   -0.00
    643 y          8.647601      8.650998     0.003398    Cartesian    0.04
    643 z         11.214648     11.214283    -0.000365    Cartesian   -0.00
    644 x         15.646352     15.636851    -0.009501    Cartesian   -0.06
    644 y         -4.064279     -4.058375     0.005904    Cartesian   -0.15
    644 z         -0.317800     -0.318261    -0.000460    Cartesian    0.14
    645 x         14.660974     14.656966    -0.004008    Cartesian   -0.03
    645 y         13.510425     13.510758     0.000333    Cartesian    0.00
    645 z         -0.297592     -0.296045     0.001547    Cartesian   -0.52
    646 x         19.016272     19.014495    -0.001777    Cartesian   -0.01
    646 y          6.407084      6.410776     0.003692    Cartesian    0.06
    646 z          5.810255      5.810568     0.000312    Cartesian    0.01
    647 x         -2.832173     -2.830276     0.001897    Cartesian   -0.07
    647 y          0.029781      0.030626     0.000845    Cartesian    2.84
    647 z         13.256663     13.247102    -0.009561    Cartesian   -0.07
    648 x          6.534966      6.535681     0.000715    Cartesian    0.01
    648 y         16.205177     16.197991    -0.007186    Cartesian   -0.04
    648 z         -2.404132     -2.402228     0.001904    Cartesian   -0.08
    649 x         -4.662143     -4.657995     0.004148    Cartesian   -0.09
    649 y         -0.857100     -0.849388     0.007712    Cartesian   -0.90
    649 z         -2.970778     -2.960744     0.010034    Cartesian   -0.34
    650 x         12.813199     12.805641    -0.007558    Cartesian   -0.06
    650 y         -5.435589     -5.430145     0.005444    Cartesian   -0.10
    650 z         10.489498     10.486010    -0.003488    Cartesian   -0.03
    651 x         12.927487     12.923138    -0.004349    Cartesian   -0.03
    651 y         15.694976     15.686899    -0.008077    Cartesian   -0.05
    651 z          1.801462      1.806273     0.004811    Cartesian    0.27
    652 x          1.197686      1.192712    -0.004974    Cartesian   -0.42
    652 y          5.000427      5.008897     0.008470    Cartesian    0.17
    652 z         16.586054     16.583369    -0.002685    Cartesian   -0.02
    653 x         10.316166     10.318654     0.002488    Cartesian    0.02
    653 y         -8.045406     -8.047400    -0.001994    Cartesian    0.02
    653 z          7.866534      7.857168    -0.009367    Cartesian   -0.12
    654 x         18.575989     18.570951    -0.005038    Cartesian   -0.03
    654 y          0.378462      0.377709    -0.000752    Cartesian   -0.20
    654 z          7.201396      7.202262     0.000867    Cartesian    0.01
    655 x         -6.395129     -6.386368     0.008761    Cartesian   -0.14
    655 y         -1.700543     -1.690604     0.009939    Cartesian   -0.58
    655 z          3.646698      3.640173    -0.006525    Cartesian   -0.18
    656 x         -0.335141     -0.329437     0.005705    Cartesian   -1.70
    656 y          2.639598      2.638214    -0.001384    Cartesian   -0.05
    656 z         15.879627     15.876175    -0.003452    Cartesian   -0.02
    657 x          7.513221      7.513439     0.000218    Cartesian    0.00
    657 y         -8.593181     -8.586683     0.006498    Cartesian   -0.08
    657 z          8.381472      8.383310     0.001837    Cartesian    0.02
    658 x         -3.565536     -3.558521     0.007015    Cartesian   -0.20
    658 y         -3.941060     -3.932305     0.008755    Cartesian   -0.22
    658 z         -1.757695     -1.760920    -0.003226    Cartesian    0.18
    659 x         -6.391568     -6.384491     0.007076    Cartesian   -0.11
    659 y          1.911284      1.916596     0.005312    Cartesian    0.28
    659 z         -1.756208     -1.757303    -0.001094    Cartesian    0.06
    660 x         -0.987959     -0.986663     0.001296    Cartesian   -0.13
    660 y         15.363969     15.353347    -0.010621    Cartesian   -0.07
    660 z          7.872479      7.865531    -0.006947    Cartesian   -0.09
    661 x         12.516056     12.505407    -0.010649    Cartesian   -0.09
    661 y         -3.961641     -3.955586     0.006056    Cartesian   -0.15
    661 z         -5.031515     -5.027246     0.004269    Cartesian   -0.08
    662 x         -3.157611     -3.149837     0.007775    Cartesian   -0.25
    662 y         12.103769     12.099807    -0.003962    Cartesian   -0.03
    662 z         10.478207     10.473229    -0.004978    Cartesian   -0.05
    663 x         -4.665704     -4.661875     0.003830    Cartesian   -0.08
    663 y         -4.468927     -4.462034     0.006893    Cartesian   -0.15
    663 z          2.432129      2.438010     0.005881    Cartesian    0.24
    664 x         10.346375     10.344879    -0.001496    Cartesian   -0.01
    664 y         -7.221872     -7.212903     0.008969    Cartesian   -0.12
    664 z         -2.425826     -2.422001     0.003825    Cartesian   -0.16
    665 x         -7.491736     -7.486688     0.005048    Cartesian   -0.07
    665 y          1.383417      1.387496     0.004079    Cartesian    0.29
    665 z          2.433615      2.437079     0.003464    Cartesian    0.14
    666 x          2.601618      2.604269     0.002651    Cartesian    0.10
    666 y         14.305993     14.300491    -0.005501    Cartesian   -0.04
    666 z         12.593010     12.589438    -0.003572    Cartesian   -0.03
    667 x         12.190589     12.190533    -0.000056    Cartesian   -0.00
    667 y          8.112316      8.111116    -0.001199    Cartesian   -0.01
    667 z         -7.810010     -7.803153     0.006857    Cartesian   -0.09
    668 x          7.486574      7.489251     0.002677    Cartesian    0.04
    668 y         -5.804889     -5.799534     0.005355    Cartesian   -0.09
    668 z         13.270926     13.273308     0.002382    Cartesian    0.02
    669 x          4.023718      4.029918     0.006200    Cartesian    0.15
    669 y         -0.851917     -0.851687     0.000230    Cartesian   -0.03
    669 z         16.584568     16.583383    -0.001185    Cartesian   -0.01
    670 x         17.479883     17.468265    -0.011618    Cartesian   -0.07
    670 y          0.434428      0.440966     0.006538    Cartesian    1.50
    670 z         10.506734     10.502939    -0.003795    Cartesian   -0.04
    671 x         -0.991520     -0.990705     0.000815    Cartesian   -0.08
    671 y         11.752142     11.739302    -0.012840    Cartesian   -0.11
    671 z         13.275385     13.259575    -0.015810    Cartesian   -0.12
    672 x         12.512495     12.495959    -0.016536    Cartesian   -0.13
    672 y         -7.573468     -7.561559     0.011910    Cartesian   -0.16
    672 z          0.371391      0.372122     0.000731    Cartesian    0.20
    673 x         16.853713     16.850222    -0.003490    Cartesian   -0.02
    673 y         10.370507     10.367649    -0.002858    Cartesian   -0.03
    673 z         -2.389868     -2.389574     0.000294    Cartesian   -0.01
    674 x         10.094334     10.093183    -0.001151    Cartesian   -0.01
    674 y         14.323666     14.318392    -0.005274    Cartesian   -0.04
    674 z         12.608760     12.608654    -0.000106    Cartesian   -0.00
    675 x         11.824259     11.818700    -0.005559    Cartesian   -0.05
    675 y          8.527289      8.529026     0.001737    Cartesian    0.02
    675 z         15.912613     15.907461    -0.005151    Cartesian   -0.03
    676 x         19.676183     19.671845    -0.004339    Cartesian   -0.02
    676 y          0.906336      0.906783     0.000446    Cartesian    0.05
    676 z          3.011552      3.010216    -0.001336    Cartesian   -0.04
--------------------------------------------------------------------------------


  Time to end of optimisation  =      212.6169 seconds


  Peak dynamic memory used =      69.79 MB 


  Timing analysis for GULP :

--------------------------------------------------------------------------------
  Task / Subroutine                                          Time (Seconds)
--------------------------------------------------------------------------------
  Calculation of reciprocal space energy and derivatives          0.0186
  Calculation of real space energy and derivatives                0.5780
  Calculation for region 1 energy and derivatives (2-b)          77.2531
  Calculation for region 2a energy                              105.5107
  Calculation for region 2b energy                                0.0269
  Calculation and manipulation of Hessian matrix                  0.0209
  Calculation of matrix inversion                                28.5305
  Symmetry generation of equivalent positions                     0.0001
--------------------------------------------------------------------------------
  Total CPU time                                                212.6170
--------------------------------------------------------------------------------


  Dump file written as ScCl3.grs



  **** GULP has completed with   2 warnings - beware! ****

  Job Finished at 18:47.22  7th February   2022                               

