********************************************************************************
*                       GENERAL UTILITY LATTICE PROGRAM                        *
*                                 Julian Gale                                  *
*                       Curtin Institute for Computation                       *
*                    School of Molecular and Life Sciences                     *
*                    Curtin University, Western Australia                      *
********************************************************************************
* Version = 5.2.0 * Last modified =   1st June 2020                            *
********************************************************************************
*  optimise     - perform optimisation run                                     *
*  conp         - constant pressure calculation                                *
*  property     - calculate properties for final geometry                      *
*  defect       - perform defect calculation after bulk run                    *
*  compare      - compare initial and final structures                         *
********************************************************************************

  Job Started  at 18:43.41  7th February   2022                               

  Number of CPUs =     1


  Total number of configurations input =      1

********************************************************************************
*  Input for Configuration =   1                                               *
********************************************************************************

  Formula = Sc2Cl6                                                      

  Number of irreducible atoms/shells =      14


  Total number atoms/shells =      14

  Dimensionality = 3               :  Bulk   



  Cartesian lattice vectors (Angstroms) :

        7.453000    0.000000    0.000000
        4.624520    5.844744    0.000000
        4.624520    2.237970    5.399307

  Cell parameters (Angstroms/Degrees):

  a =       7.4530    alpha =  51.6480
  b =       7.4530    beta  =  51.6480
  c =       7.4530    gamma =  51.6480

  Initial cell volume =         235.198534 Angs**3

  Temperature of configuration =   0.00     K 

  Pressure of configuration =         0.000 GPa 

  Fractional coordinates of asymmetric unit :

--------------------------------------------------------------------------------
   No.  Atomic       x           y          z         Charge      Occupancy
        Label      (Frac)      (Frac)     (Frac)        (e)         (Frac)  
--------------------------------------------------------------------------------
      1 Sc    c    0.333900    0.333900    0.333900     3.00000    1.000000    
      2 Sc    c    0.666100 *  0.666100 *  0.666100 *   3.00000    1.000000    
      3 Cl    c    0.073700 *  0.443900 *  0.705300 *   1.48500    1.000000    
      4 Cl    c    0.294700 *  0.926300 *  0.556100 *   1.48500    1.000000    
      5 Cl    c    0.443900 *  0.705300 *  0.073700 *   1.48500    1.000000    
      6 Cl    c    0.556100 *  0.294700 *  0.926300 *   1.48500    1.000000    
      7 Cl    c    0.705300 *  0.073700 *  0.443900 *   1.48500    1.000000    
      8 Cl    c    0.926300 *  0.556100 *  0.294700 *   1.48500    1.000000    
      9 Cl    s    0.073700 *  0.443900 *  0.705300 *  -2.48500    1.000000    
     10 Cl    s    0.294700 *  0.926300 *  0.556100 *  -2.48500    1.000000    
     11 Cl    s    0.443900 *  0.705300 *  0.073700 *  -2.48500    1.000000    
     12 Cl    s    0.556100 *  0.294700 *  0.926300 *  -2.48500    1.000000    
     13 Cl    s    0.705300 *  0.073700 *  0.443900 *  -2.48500    1.000000    
     14 Cl    s    0.926300 *  0.556100 *  0.294700 *  -2.48500    1.000000    
--------------------------------------------------------------------------------



********************************************************************************
*  General input information                                                   *
********************************************************************************

  Species output for all configurations : 

--------------------------------------------------------------------------------
  Species    Type    Atomic    Atomic    Charge       Radii (Angs)     Library
                     Number     Mass       (e)     Cova   Ionic  VDW   Symbol
--------------------------------------------------------------------------------
    Sc       Core       21      44.96   3.000000   1.440  0.000  2.150          
    Cl       Core       17      35.45   1.485000   0.990  0.000  1.650          
    Cl       Shell      17       0.00  -2.485000   0.990  0.000  1.650          
--------------------------------------------------------------------------------


  Lattice summation method               =    Ewald          (3-D)
                                         =    Parry          (2-D)
                                         =    Saunders et al (1-D)
  Accuracy factor for lattice sums       =   12.000


  Analytic derivatives to be used

  Time limit = Infinity

  Maximum range for interatomic potentials =    100000.000000 Angstroms

  General interatomic potentials :

--------------------------------------------------------------------------------
Atom  Types   Potential      Parameter       Value         Units   Cutoffs(Ang)
  1     2                                                            Min /  Max 
--------------------------------------------------------------------------------
Cl   c Cl   s Spring (c-s)  Spring k 2       36.070000    eV*Ang^-2 0.000  0.800
                            Spring k 4       0.0000000    eV*Ang^-4 
--------------------------------------------------------------------------------
Sc   c Cl   s Buckingham    Buckingham A     2456.2200    eV        0.000 12.000
                            Buckingham rho  0.31470000    Ang       
                            Buckingham C     0.0000000    eV*Ang^6  
--------------------------------------------------------------------------------
Cl   s Cl   s Buckingham    Buckingham A     1227.2000    eV        0.000 12.000
                            Buckingham rho  0.32100000    Ang       
                            Buckingham C     14.530000    eV*Ang^6  
--------------------------------------------------------------------------------

********************************************************************************
*  Output for configuration   1                                                *
********************************************************************************


  Components of energy : 

--------------------------------------------------------------------------------
  Interatomic potentials     =          10.39244711 eV    
  Monopole - monopole (real) =         -30.86300284 eV    
  Monopole - monopole (recip)=         -65.52201623 eV    
  Monopole - monopole (total)=         -96.38501907 eV    
--------------------------------------------------------------------------------
  Total lattice energy       =         -85.99257196 eV    
--------------------------------------------------------------------------------
  Total lattice energy       =           -8296.9687 kJ/(mole unit cells)
--------------------------------------------------------------------------------


  Number of variables =       45

  Maximum number of calculations  =          1000
  Maximum Hessian update interval =            10
  Maximum step size               =   1.000000000
  Maximum parameter tolerance     =   0.000010000
  Maximum function  tolerance     =   0.000010000
  Maximum gradient  tolerance     =   0.001000000
  Maximum gradient  component     =   0.010000000

  Symmetry not applied to optimisation

  Cell parameters to be optimised using strains

  Newton-Raphson optimiser to be used

  BFGS hessian update to be used

  Lower half triangular hessian to be used

  Start of bulk optimisation :

  Cycle:      0 Energy:       -85.992572  Gnorm:      8.922860  CPU:    0.013
  ** Hessian calculated **
  Cycle:      1 Energy:       -91.630693  Gnorm:      3.248521  CPU:    0.030
  ** Hessian calculated **
  Cycle:      2 Energy:       -93.407926  Gnorm:      0.241259  CPU:    0.047
  Cycle:      3 Energy:       -93.727483  Gnorm:      0.379189  CPU:    0.059
  Cycle:      4 Energy:       -93.872131  Gnorm:      0.419846  CPU:    0.069
  Cycle:      5 Energy:       -93.916106  Gnorm:      0.216759  CPU:    0.081
  Cycle:      6 Energy:       -93.955402  Gnorm:      0.236635  CPU:    0.093
  Cycle:      7 Energy:       -94.003608  Gnorm:      0.337075  CPU:    0.106
  Cycle:      8 Energy:       -94.063864  Gnorm:      0.300404  CPU:    0.119
  Cycle:      9 Energy:       -94.105073  Gnorm:      0.327302  CPU:    0.130
  Cycle:     10 Energy:       -94.152801  Gnorm:      0.172167  CPU:    0.144
  Cycle:     11 Energy:       -94.162078  Gnorm:      0.129678  CPU:    0.157
  ** Hessian calculated **
  Cycle:     12 Energy:       -94.184232  Gnorm:      0.042568  CPU:    0.177
  Cycle:     13 Energy:       -94.185870  Gnorm:      0.019064  CPU:    0.198
  Cycle:     14 Energy:       -94.186129  Gnorm:      0.004834  CPU:    0.219
  Cycle:     15 Energy:       -94.186171  Gnorm:      0.003759  CPU:    0.240


  **** Optimisation achieved ****


  Final energy =     -94.18617309 eV
  Final Gnorm  =       0.00026742

  Components of energy : 

--------------------------------------------------------------------------------
  Interatomic potentials     =          21.32396821 eV    
  Monopole - monopole (real) =          81.06426209 eV    
  Monopole - monopole (recip)=        -196.57440339 eV    
  Monopole - monopole (total)=        -115.51014130 eV    
--------------------------------------------------------------------------------
  Total lattice energy       =         -94.18617309 eV    
--------------------------------------------------------------------------------
  Total lattice energy       =           -9087.5259 kJ/(mole unit cells)
--------------------------------------------------------------------------------

  Final fractional coordinates of atoms :

--------------------------------------------------------------------------------
   No.  Atomic        x           y          z          Radius
        Label       (Frac)      (Frac)     (Frac)       (Angs) 
--------------------------------------------------------------------------------
     1  Sc    c     0.333900    0.333900    0.333900    0.000000
     2  Sc    c     0.667797    0.667813    0.667799    0.000000
     3  Cl    c     0.075682    0.445383    0.703391    0.000000
     4  Cl    c     0.297892    0.926501    0.556250    0.000000
     5  Cl    c     0.445899    0.703300    0.075286    0.000000
     6  Cl    c     0.555797    0.298410    0.926421    0.000000
     7  Cl    c     0.703804    0.075207    0.445450    0.000000
     8  Cl    c     0.926009    0.556319    0.298315    0.000000
     9  Cl    s     0.065947    0.452571    0.677260    0.000000
    10  Cl    s     0.324076    0.936176    0.549072    0.000000
    11  Cl    s     0.453018    0.677183    0.065599    0.000000
    12  Cl    s     0.548677    0.324526    0.936109    0.000000
    13  Cl    s     0.677621    0.065531    0.452629    0.000000
    14  Cl    s     0.935746    0.549133    0.324445    0.000000
--------------------------------------------------------------------------------

  Final Cartesian lattice vectors (Angstroms) :

        7.492716    0.017674    0.015750
        4.666685    5.870017    0.017236
        4.663123    2.258191    5.420142


  Final cell parameters and derivatives :

--------------------------------------------------------------------------------
       a            7.492753 Angstrom     dE/de1(xx)     0.001502 eV/strain
       b            7.499023 Angstrom     dE/de2(yy)     0.001130 eV/strain
       c            7.498139 Angstrom     dE/de3(zz)     0.001402 eV/strain
       alpha       51.360329 Degrees      dE/de4(yz)     0.000184 eV/strain
       beta        51.381576 Degrees      dE/de5(xz)     0.000594 eV/strain
       gamma       51.379896 Degrees      dE/de6(xy)     0.000958 eV/strain
--------------------------------------------------------------------------------

  Primitive cell volume =           237.388320 Angs**3

  Density of cell =      2.116870 g/cm**3

  Non-primitive cell volume =           237.388320 Angs**3


  Final internal derivatives :

--------------------------------------------------------------------------------
   No.  Atomic          a             b             c           Radius
        Label          (eV)          (eV)          (eV)        (eV/Angs)
--------------------------------------------------------------------------------
      1 Sc    c       0.000000      0.000000      0.000000      0.000000
      2 Sc    c       0.001681      0.001454      0.000124      0.000000
      3 Cl    c      -0.002719     -0.000640     -0.000937      0.000000
      4 Cl    c       0.000986      0.001285      0.000118      0.000000
      5 Cl    c       0.001446      0.000724      0.001502      0.000000
      6 Cl    c      -0.000978      0.000527     -0.000482      0.000000
      7 Cl    c      -0.001726     -0.001514     -0.000663      0.000000
      8 Cl    c       0.000842     -0.000977      0.000232      0.000000
      9 Cl    s       0.003561      0.001253      0.002922      0.000000
     10 Cl    s      -0.002865     -0.003016     -0.001029      0.000000
     11 Cl    s       0.001191      0.003381      0.002375      0.000000
     12 Cl    s      -0.001348     -0.004134     -0.001709      0.000000
     13 Cl    s       0.002463      0.001978      0.000726      0.000000
     14 Cl    s      -0.002693     -0.000158     -0.002951      0.000000
--------------------------------------------------------------------------------
  Maximum abs         0.003561      0.004134      0.002951      0.000000
--------------------------------------------------------------------------------

  Comparison of initial and final structures : 

--------------------------------------------------------------------------------
  Parameter   Initial value   Final value   Difference    Units      Percent
--------------------------------------------------------------------------------
    Volume       235.198534    237.388320     2.189785    Angs**3      0.93
    a              7.453000      7.492753     0.039753    Angstroms    0.53
    b              7.453000      7.499023     0.046023    Angstroms    0.62
    c              7.453000      7.498139     0.045139    Angstroms    0.61
    alpha         51.648000     51.360329    -0.287671    Degrees     -0.56
    beta          51.648000     51.381576    -0.266424    Degrees     -0.52
    gamma         51.648000     51.379896    -0.268104    Degrees     -0.52
      1 x          0.333900      0.333900     0.000000    Fractional   0.00
      1 y          0.333900      0.333900     0.000000    Fractional   0.00
      1 z          0.333900      0.333900     0.000000    Fractional   0.00
      2 x          0.666100      0.667797     0.001697    Fractional   0.25
      2 y          0.666100      0.667813     0.001713    Fractional   0.26
      2 z          0.666100      0.667799     0.001699    Fractional   0.25
      3 x          0.073700      0.075682     0.001982    Fractional   2.69
      3 y          0.443900      0.445383     0.001483    Fractional   0.33
      3 z          0.705300      0.703391     0.001909    Fractional   0.27
      4 x          0.294700      0.297892     0.003192    Fractional   1.08
      4 y          0.926300      0.926501     0.000201    Fractional   0.02
      4 z          0.556100      0.556250     0.000150    Fractional   0.03
      5 x          0.443900      0.445899     0.001999    Fractional   0.45
      5 y          0.705300      0.703300     0.002000    Fractional   0.28
      5 z          0.073700      0.075286     0.001586    Fractional   2.15
      6 x          0.556100      0.555797     0.000303    Fractional   0.05
      6 y          0.294700      0.298410     0.003710    Fractional   1.26
      6 z          0.926300      0.926421     0.000121    Fractional   0.01
      7 x          0.705300      0.703804     0.001496    Fractional   0.21
      7 y          0.073700      0.075207     0.001507    Fractional   2.04
      7 z          0.443900      0.445450     0.001550    Fractional   0.35
      8 x          0.926300      0.926009     0.000291    Fractional   0.03
      8 y          0.556100      0.556319     0.000219    Fractional   0.04
      8 z          0.294700      0.298315     0.003615    Fractional   1.23
      9 x          0.073700      0.065947     0.007753    Fractional  10.52
      9 y          0.443900      0.452571     0.008671    Fractional   1.95
      9 z          0.705300      0.677260     0.028040    Fractional   3.98
     10 x          0.294700      0.324076     0.029376    Fractional   9.97
     10 y          0.926300      0.936176     0.009876    Fractional   1.07
     10 z          0.556100      0.549072     0.007028    Fractional   1.26
     11 x          0.443900      0.453018     0.009118    Fractional   2.05
     11 y          0.705300      0.677183     0.028117    Fractional   3.99
     11 z          0.073700      0.065599     0.008101    Fractional  10.99
     12 x          0.556100      0.548677     0.007423    Fractional   1.33
     12 y          0.294700      0.324526     0.029826    Fractional  10.12
     12 z          0.926300      0.936109     0.009809    Fractional   1.06
     13 x          0.705300      0.677621     0.027679    Fractional   3.92
     13 y          0.073700      0.065531     0.008169    Fractional  11.08
     13 z          0.443900      0.452629     0.008729    Fractional   1.97
     14 x          0.926300      0.935746     0.009446    Fractional   1.02
     14 y          0.556100      0.549133     0.006967    Fractional   1.25
     14 z          0.294700      0.324445     0.029745    Fractional  10.09
--------------------------------------------------------------------------------


  Born effective charge tensors : 

-------------------------------------------------------------------------------
  Atom             x           y             z
-------------------------------------------------------------------------------
    1 Sc    x       2.2285     -0.2571     -0.1710
            y      -0.2560      2.6360     -0.0847
            z      -0.1727     -0.0813      2.7043
-------------------------------------------------------------------------------
    2 Sc    x       2.2285     -0.2571     -0.1710
            y      -0.2560      2.6360     -0.0846
            z      -0.1727     -0.0813      2.7044
-------------------------------------------------------------------------------
    3 Cl    x      -0.8062      0.2256      0.0411
            y       0.2160     -0.8834     -0.1927
            z       0.0553     -0.1841     -0.8334
-------------------------------------------------------------------------------
    4 Cl    x      -0.7835      0.1157      0.0049
            y       0.1062     -0.9970      0.2420
            z      -0.0106      0.2360     -0.7424
-------------------------------------------------------------------------------
    5 Cl    x      -0.6388     -0.0842      0.1250
            y      -0.0662     -0.7556      0.0353
            z       0.1280      0.0294     -1.1285
-------------------------------------------------------------------------------
    6 Cl    x      -0.6388     -0.0842      0.1250
            y      -0.0662     -0.7556      0.0353
            z       0.1280      0.0294     -1.1285
-------------------------------------------------------------------------------
    7 Cl    x      -0.7835      0.1157      0.0049
            y       0.1062     -0.9970      0.2420
            z      -0.0106      0.2360     -0.7424
-------------------------------------------------------------------------------
    8 Cl    x      -0.8062      0.2256      0.0411
            y       0.2160     -0.8834     -0.1927
            z       0.0553     -0.1841     -0.8334
-------------------------------------------------------------------------------




  Elastic Constant Matrix: (Units=GPa)

-------------------------------------------------------------------------------
  Indices      1         2         3         4         5         6    
-------------------------------------------------------------------------------
       1      3.6214    8.6385    8.0518    0.5781   -2.6064   -3.9922
       2      8.6385   31.8741   23.2528   -4.4482   -5.2569  -13.8933
       3      8.0518   23.2528   39.7403   -4.9820  -10.4619   -9.4746
       4      0.5781   -4.4482   -4.9820    7.0058   -1.6207    0.0048
       5     -2.6064   -5.2569  -10.4619   -1.6207    4.2787    3.1180
       6     -3.9922  -13.8933   -9.4746    0.0048    3.1180    6.9568
-------------------------------------------------------------------------------


  Elastic Compliance Matrix: (Units=1/GPa)

-------------------------------------------------------------------------------
  Indices      1         2         3         4         5         6    
-------------------------------------------------------------------------------
       1    4.139658 -2.323081 -1.150848 -3.167637 -2.310781 -2.793293
       2   -2.323081  2.746677 -0.244172  1.461210 -1.287173  4.395552
       3   -1.150848 -0.244172  1.480853  1.927327  4.035931 -0.941456
       4   -3.167637  1.461210  1.927327  3.842313  4.931639  1.512259
       5   -2.310781 -1.287173  4.035931  4.931639 11.609238 -3.606608
       6   -2.793293  4.395552 -0.941456  1.512259 -3.606608  7.652260
-------------------------------------------------------------------------------

  Mechanical properties :

-------------------------------------------------------------------------------
  Convention :                    Reuss         Voigt         Hill
-------------------------------------------------------------------------------
  Bulk  Modulus (GPa)     =       1.07413      17.23576       9.15495
  Shear Modulus (GPa)     =       0.12749       6.00110       3.06430
-------------------------------------------------------------------------------
  Velocity S-wave (km/s)  =       0.24541       1.68371       1.20315
  Velocity P-wave (km/s)  =       0.76663       3.45282       2.50097
-------------------------------------------------------------------------------
  Compressibility (1/GPa) =    0.93098656
-------------------------------------------------------------------------------
  Stress axis :                     x             y             z
-------------------------------------------------------------------------------
  Youngs Moduli (GPa)     =       0.24157       0.36408       0.67529
-------------------------------------------------------------------------------
  Poissons Ratio (x)      =                     0.84578       0.77715
  Poissons Ratio (y)      =       0.56118                     0.16489
  Poissons Ratio (z)      =       0.27801       0.08890
-------------------------------------------------------------------------------


  Piezoelectric Strain Matrix: (Units=C/m**2)

-------------------------------------------------------------------------------
  Indices      1         2         3         4         5         6    
-------------------------------------------------------------------------------
       x    -0.00008   0.00014   0.00001  -0.00009   0.00009  -0.00005
       y    -0.00004  -0.00012   0.00007   0.00004  -0.00006  -0.00002
       z    -0.00006  -0.00018  -0.00004  -0.00005   0.00002   0.00008
-------------------------------------------------------------------------------


  Piezoelectric Stress Matrix: (Units=10**-11 C/N)

-------------------------------------------------------------------------------
  Indices      1         2         3         4         5         6    
-------------------------------------------------------------------------------
       x    -0.04806   0.01066   0.03304   0.05336   0.08812  -0.00159
       y     0.01097  -0.01943   0.00109  -0.01104   0.00386  -0.03303
       z     0.00895  -0.00670  -0.00499  -0.01237  -0.01368  -0.00769
-------------------------------------------------------------------------------


  Static dielectric constant tensor : 

-------------------------------------------------------------------------------
              x         y         z
-------------------------------------------------------------------------------
       x     2.55749  -0.36997  -0.24788
       y    -0.36997   3.14505  -0.11962
       z    -0.24788  -0.11962   3.24356
--------------------------------------------------------------------------------

  High frequency dielectric constant tensor : 

-------------------------------------------------------------------------------
              x         y         z
-------------------------------------------------------------------------------
       x     1.82639  -0.04056  -0.02716
       y    -0.04056   1.89075  -0.01312
       z    -0.02716  -0.01312   1.90154
-------------------------------------------------------------------------------

  Static refractive indices : 

-------------------------------------------------------------------------------
    1 =    1.51614      2 =    1.82309      3 =    1.82312
-------------------------------------------------------------------------------

  High frequency refractive indices : 

-------------------------------------------------------------------------------
    1 =    1.34090      2 =    1.38214      3 =    1.38215
-------------------------------------------------------------------------------


  Time to end of optimisation =       0.2782 seconds

********************************************************************************
*  Defect calculation for configuration   1 :                                  *
********************************************************************************



!!!!!!!!!!!!!!!!!!!!!!!!!!!!!!!!!!!!!!!!!!!!!!!!!!!!!!!!!!!!!!!!!!!!!!!!!!!!!!!!
!! WARNING : Ambiguous vacancy specifier used
!!!!!!!!!!!!!!!!!!!!!!!!!!!!!!!!!!!!!!!!!!!!!!!!!!!!!!!!!!!!!!!!!!!!!!!!!!!!!!!!



!!!!!!!!!!!!!!!!!!!!!!!!!!!!!!!!!!!!!!!!!!!!!!!!!!!!!!!!!!!!!!!!!!!!!!!!!!!!!!!!
!! WARNING : Ambiguous vacancy specifier used
!!!!!!!!!!!!!!!!!!!!!!!!!!!!!!!!!!!!!!!!!!!!!!!!!!!!!!!!!!!!!!!!!!!!!!!!!!!!!!!!

  Total number of defects =      2

  Total charge on defect  =   1.00

  Defect centre is at   0.0737   0.4439   0.7053  Frac

  Region 1 radius =  15.0000      Number of ions =    847

  Region 2 radius =  24.0000      Number of ions =   2590

  Region 2a mode = 4 : screened electrostatics due to region 1 
                       neglect correction to region 1 forces from 2a
                       region 2a displacements based on defects only

  Region 2a ions will only interact with defects in region 1

  Vacancies:

--------------------------------------------------------------------------------
    Specification type     Symbol/Number         x          y          z
--------------------------------------------------------------------------------
    Atom                    Cl    core
    Atom                    Cl    shel
--------------------------------------------------------------------------------


  Components of defect energy : 

--------------------------------------------------------------------------------
  Region 1 - region 1                   =     -4.91202293 eV
  Region 1 - region 2a (unrelaxed)      =     14.44649738 eV
  Region 1 - 2a (relaxed - correction)  =     -0.23530575 eV
  Region 1 (Total)                      =      9.29916870 eV
  Region 2a                             =      0.11766209 eV
  Region 2b                             =     -0.19638630 eV
--------------------------------------------------------------------------------
  Total defect energy                   =      9.22044449 eV
--------------------------------------------------------------------------------

  Largest displacement in region 2 =   0.0085 Angstroms


  Number of variables =     2541

  Maximum number of calculations  =        1000
  Maximum Hessian update interval =          10
  Maximum step size               =   1.0000000
  Maximum parameter tolerance     =   0.0000100
  Maximum function  tolerance     =   0.0000100
  Maximum gradient  tolerance     =   0.0010000

  Symmetry adapted optimisation

  Newton-Raphson optimiser to be used

  BFGS hessian update to be used

  Lower half triangular hessian to be used

  Start of defect optimisation :

  Cycle:      0 Defect Energy:   9.220444  Gnorm:     0.006671  CPU:   16.426
  ** Hessian calculated **
  Cycle:      1 Defect Energy:   8.225949  Gnorm:     0.005489  CPU:   69.541
  Cycle:      2 Defect Energy:   7.109399  Gnorm:     0.003744  CPU:  101.041
  Cycle:      3 Defect Energy:   6.510915  Gnorm:     0.002390  CPU:  134.013
  Cycle:      4 Defect Energy:   6.328879  Gnorm:     0.001892  CPU:  167.942
  Cycle:      5 Defect Energy:   5.918592  Gnorm:     0.000359  CPU:  186.229
  Cycle:      6 Defect Energy:   5.903498  Gnorm:     0.000329  CPU:  196.252
  Cycle:      7 Defect Energy:   5.881620  Gnorm:     0.000249  CPU:  202.227
  Cycle:      8 Defect Energy:   5.869828  Gnorm:     0.000182  CPU:  207.653
  Cycle:      9 Defect Energy:   5.868085  Gnorm:     0.000183  CPU:  212.738
  ** Hessian calculated **
  Cycle:     10 Defect Energy:   5.859233  Gnorm:     0.000128  CPU:  236.706
  Cycle:     11 Defect Energy:   5.854481  Gnorm:     0.000090  CPU:  240.691
  Cycle:     12 Defect Energy:   5.851778  Gnorm:     0.000063  CPU:  244.731
  Cycle:     13 Defect Energy:   5.850235  Gnorm:     0.000045  CPU:  248.759
  Cycle:     14 Defect Energy:   5.849338  Gnorm:     0.000031  CPU:  252.854
  Cycle:     15 Defect Energy:   5.848851  Gnorm:     0.000022  CPU:  256.933
  Cycle:     16 Defect Energy:   5.848589  Gnorm:     0.000016  CPU:  260.987
  Cycle:     17 Defect Energy:   5.848432  Gnorm:     0.000011  CPU:  265.058
  Cycle:     18 Defect Energy:   5.848354  Gnorm:     0.000008  CPU:  269.106
  Cycle:     19 Defect Energy:   5.848323  Gnorm:     0.000005  CPU:  273.104
  ** Hessian calculated **
  Cycle:     20 Defect Energy:   5.848312  Gnorm:     0.000004  CPU:  294.126
  Cycle:     21 Defect Energy:   5.848301  Gnorm:     0.000003  CPU:  298.107


  **** Optimisation achieved ****


  Final defect energy  =        5.84829607
  Final defect Gnorm   =        0.00000188

  Components of defect energy : 

--------------------------------------------------------------------------------
  Region 1 - region 1                   =     -8.05648431 eV
  Region 1 - region 2a (unrelaxed)      =     14.20715041 eV
  Region 1 - 2a (relaxed - correction)  =     -0.21150464 eV
  Region 1 (Total)                      =      5.93916146 eV
  Region 2a                             =      0.10573375 eV
  Region 2b                             =     -0.19659913 eV
--------------------------------------------------------------------------------
  Total defect energy                   =      5.84829607 eV
--------------------------------------------------------------------------------

  Largest displacement in region 2 =   0.0085 Angstroms

  Final coordinates of region 1 :

--------------------------------------------------------------------------------
   No.  Atomic        x           y           z          Radius      Charge
        Label       (Angs)      (Angs)      (Angs)       (Angs)       (e) 
--------------------------------------------------------------------------------
     1  Sc    c     3.278801    5.650239    3.774794    0.000000    3.000000
     2  Sc    c     5.625157    2.276851    1.523379    0.000000    3.000000
     3  Cl    c     3.923170    3.875870    2.228736    0.000000    1.485000
     4  Cl    c     4.189329    6.426881    5.914775    0.000000    1.485000
     5  Cl    c     7.675006    1.440117    2.579721    0.000000    1.485000
     6  Cl    c     6.853970    4.076336    0.367406    0.000000    1.485000
     7  Cl    c     4.621770    7.274799    2.495995    0.000000    1.485000
     8  Cl    c     2.167487    3.909082    5.111890    0.000000    1.485000
     9  Cl    c     4.470836    0.609844    2.915725    0.000000    1.485000
    10  Cl    c     9.829904    3.874766    5.025625    0.000000    1.485000
    11  Cl    c     4.808610    3.607268    7.811748    0.000000    1.485000
    12  Cl    c     9.135900    6.677544    3.012817    0.000000    1.485000
    13  Cl    c     6.861094    0.666459    5.853818    0.000000    1.485000
    14  Cl    c     8.084279    6.184933    7.051094    0.000000    1.485000
    15  Sc    c     2.732300    4.916931    7.390165    0.000000    3.000000
    16  Sc    c     6.585987   -0.581768    3.717536    0.000000    3.000000
    17  Cl    c     1.322731    6.807009    2.877290    0.000000    1.485000
    18  Cl    c     5.072111    1.445768   -0.705702    0.000000    1.485000
    19  Sc    c    11.234247    5.435611    3.637865    0.000000    3.000000
    20  Cl    c    10.903719    3.932689    1.653976    0.000000    1.485000
    21  Sc    c    10.278823    4.975285    7.245257    0.000000    3.000000
    22  Cl    c     3.383747    0.274520    7.059183    0.000000    1.485000
    23  Sc    c     2.638246    8.680025    1.711672    0.000000    3.000000
    24  Cl    c     9.134062    3.076337    8.415242    0.000000    1.485000
    25  Sc    c     6.519705    3.142527   -1.984333    0.000000    3.000000
    26  Cl    c     7.031533    9.703738    5.036129    0.000000    1.485000
    27  Sc    c     3.689845    1.728202    9.084082    0.000000    3.000000
    28  Sc    c     5.556298   -0.961271    7.288180    0.000000    3.000000
    29  Cl    c     1.596863    3.008996    8.503506    0.000000    1.485000
    30  Cl    c     5.175430   -2.109976    5.077789    0.000000    1.485000
    31  Cl    c     4.442861    4.434636   -2.454784    0.000000    1.485000
    32  Cl    c     2.327926    7.464616   -0.438632    0.000000    1.485000
    33  Cl    c     8.068092    9.776596    1.653796    0.000000    1.485000
    34  Cl    c     3.088815    6.455224    9.307175    0.000000    1.485000
    35  Cl    c     5.891713    0.553762    9.251646    0.000000    1.485000
    36  Cl    c     0.175027    1.441708    2.410044    0.000000    1.485000
    37  Cl    c     2.985692   10.006335    3.795563    0.000000    1.485000
    38  Cl    c     8.793234   -1.709381    3.854126    0.000000    1.485000
    39  Cl    c     0.639091    6.231366    7.054057    0.000000    1.485000
    40  Sc    c    10.271569    8.587707    1.826235    0.000000    3.000000
    41  Cl    c     6.325423   -1.906946    1.618715    0.000000    1.485000
    42  Cl    c     5.864392    7.778457   -1.593811    0.000000    1.485000
    43  Cl    c     8.649989    1.901139   -1.616421    0.000000    1.485000
    44  Cl    c    11.624856    6.557875    5.841440    0.000000    1.485000
    45  Cl    c     6.310664    8.924224    8.418134    0.000000    1.485000
    46  Cl    c     9.857355    7.463202   -0.376363    0.000000    1.485000
    47  Sc    c     8.400443    7.682815    9.052572    0.000000    3.000000
    48  Cl    c     7.035196    6.096841   10.435410    0.000000    1.485000
    49  Cl    c    11.967417    0.837359    3.027852    0.000000    1.485000
    50  Cl    c     4.129779   10.155300    0.378671    0.000000    1.485000
    51  Cl    c    10.912253    0.333726    7.041195    0.000000    1.485000
    52  Cl    c     7.670186    5.091656   -3.008621    0.000000    1.485000
    53  Cl    c    -0.521355    4.246043    0.411043    0.000000    1.485000
    54  Cl    c    12.350132    7.323559    2.434021    0.000000    1.485000
    55  Cl    c    -1.582710    4.179302    3.776551    0.000000    1.485000
    56  Cl    c     1.253299   -1.650266    3.779677    0.000000    1.485000
    57  Cl    c     1.232488    1.932683   -1.607109    0.000000    1.485000
    58  Cl    c    10.580142    6.459447    9.238820    0.000000    1.485000
    59  Cl    c    13.403470    4.207683    3.838006    0.000000    1.485000
    60  Cl    c    10.569738   10.054398    3.835599    0.000000    1.485000
    61  Sc    c     8.394814   11.288286    3.638466    0.000000    3.000000
    62  Cl    c    -0.535994    0.665529    5.802263    0.000000    1.485000
    63  Sc    c    13.106257    2.725947    1.831967    0.000000    3.000000
    64  Cl    c     2.289753   -1.573404    0.398855    0.000000    1.485000
    65  Sc    c     7.448429   10.832761    7.244103    0.000000    3.000000
    66  Cl    c    12.352884    3.703468    7.830042    0.000000    1.485000
    67  Cl    c     9.528441    9.560673    7.837282    0.000000    1.485000
    68  Cl    c     7.664160   -2.182267    7.833483    0.000000    1.485000
    69  Sc    c     3.715117    9.046935   -1.845531    0.000000    3.000000
    70  Cl    c     4.103537    2.910000   11.241812    0.000000    1.485000
    71  Sc    c     5.583000    6.355475   -3.642149    0.000000    3.000000
    72  Cl    c     2.045314    9.561773    7.823130    0.000000    1.485000
    73  Cl    c     9.800764   -1.540142    0.414202    0.000000    1.485000
    74  Sc    c    11.222416    1.817110    9.043178    0.000000    3.000000
    75  Sc    c     0.910751    7.719857    9.079954    0.000000    3.000000
    76  Sc    c     8.506895   -3.168808    1.806982    0.000000    3.000000
    77  Cl    c     0.490831    9.915353    1.569954    0.000000    1.485000
    78  Cl    c     6.267785    1.647557   -3.950445    0.000000    1.485000
    79  Sc    c    -1.927400    2.679508    1.790828    0.000000    3.000000
    80  Sc    c    -0.953024   -0.466979    3.604786    0.000000    3.000000
    81  Cl    c    12.681144    1.615510   -0.374831    0.000000    1.485000
    82  Cl    c     6.309272   12.537553    3.022434    0.000000    1.485000
    83  Cl    c     2.343111    0.167396   10.482939    0.000000    1.485000
    84  Cl    c     4.448654   -2.848679    8.475658    0.000000    1.485000
    85  Cl    c    -0.465550    9.700928    5.033229    0.000000    1.485000
    86  Cl    c     7.315394   -1.437003   -2.399623    0.000000    1.485000
    87  Cl    c     5.261495   12.041218    7.051486    0.000000    1.485000
    88  Cl    c     9.850469    0.243705   10.431699    0.000000    1.485000
    89  Sc    c     0.836907   11.324948    3.640348    0.000000    3.000000
    90  Sc    c     8.450849    0.411550   -3.648748    0.000000    3.000000
    91  Cl    c     3.388182    7.544224   -3.821501    0.000000    1.485000
    92  Cl    c    11.970323    4.452895   -2.377666    0.000000    1.485000
    93  Sc    c    -0.957787    3.147451   -1.811332    0.000000    3.000000
    94  Cl    c     0.194619    5.042556   -2.979316    0.000000    1.485000
    95  Cl    c     3.018300   -0.795026   -2.978885    0.000000    1.485000
    96  Cl    c     8.802211   12.408440    5.841281    0.000000    1.485000
    97  Cl    c    11.617635   10.173264    0.434088    0.000000    1.485000
    98  Cl    c     8.084012    2.580520   12.449118    0.000000    1.485000
    99  Sc    c     0.932553   -3.164436    1.796714    0.000000    3.000000
   100  Sc    c    11.228137    9.047588   -1.775187    0.000000    3.000000
   101  Cl    c    -2.631239    7.280463    2.408411    0.000000    1.485000
   102  Cl    c     3.024011   -4.403567    2.412410    0.000000    1.485000
   103  Cl    c     8.797590    8.804364   11.252367    0.000000    1.485000
   104  Cl    c    14.441729    4.324120    0.440541    0.000000    1.485000
   105  Cl    c    12.683684   -1.997508    5.029311    0.000000    1.485000
   106  Cl    c     9.142100   10.301527   -2.382726    0.000000    1.485000
   107  Cl    c    -0.424823    6.095835   10.433233    0.000000    1.485000
   108  Cl    c     7.336771   -5.014663    3.018800    0.000000    1.485000
   109  Sc    c    14.059639   -0.422645    3.640257    0.000000    3.000000
   110  Cl    c    -2.629915    3.675883    7.808850    0.000000    1.485000
   111  Cl    c     0.194502   -2.168411    7.810137    0.000000    1.485000
   112  Sc    c    13.104055   -0.883922    7.239544    0.000000    3.000000
   113  Sc    c     7.446498    7.214701   12.652704    0.000000    3.000000
   114  Cl    c    11.612262    2.954529   11.238719    0.000000    1.485000
   115  Cl    c    14.445847    0.711561    5.841911    0.000000    1.485000
   116  Sc    c    -0.050517   10.834925    7.241766    0.000000    3.000000
   117  Sc    c     9.413645   -2.691000   -1.792461    0.000000    3.000000
   118  Cl    c    -3.037070    0.789958    2.996296    0.000000    1.485000
   119  Cl    c    -2.315437    1.565449   -0.416359    0.000000    1.485000
   120  Cl    c     1.317187   12.405357    5.842120    0.000000    1.485000
   121  Cl    c    10.539154   -0.788743   -2.976983    0.000000    1.485000
   122  Cl    c     6.950576    7.935902   -5.003585    0.000000    1.485000
   123  Cl    c     4.865648   10.922989   -3.016160    0.000000    1.485000
   124  Cl    c     5.264053    8.432512   12.449110    0.000000    1.485000
   125  Cl    c    -1.176192    8.938915    8.434996    0.000000    1.485000
   126  Cl    c    -1.247194   -1.939009    1.598414    0.000000    1.485000
   127  Sc    c     0.926865    0.441814   -3.615680    0.000000    3.000000
   128  Cl    c     8.053923   -4.267396   -0.392536    0.000000    1.485000
   129  Cl    c     1.637292   10.313456   -2.403683    0.000000    1.485000
   130  Cl    c     5.210941    5.202690   -5.823373    0.000000    1.485000
   131  Cl    c    10.913516    7.548007   -3.762194    0.000000    1.485000
   132  Sc    c    -3.779450    5.399541    3.606003    0.000000    3.000000
   133  Cl    c    -3.341479    6.510590    5.809775    0.000000    1.485000
   134  Sc    c     1.883846   -2.707409   -1.809477    0.000000    3.000000
   135  Sc    c     2.758663    1.332897   12.678758    0.000000    3.000000
   136  Sc    c     6.564528   -4.094105    9.053368    0.000000    3.000000
   137  Cl    c     2.294879    2.033019   -4.989120    0.000000    1.485000
   138  Cl    c    15.185629    1.470604    2.439853    0.000000    1.485000
   139  Cl    c     9.527910   13.163194    2.429968    0.000000    1.485000
   140  Cl    c     1.316789    8.819282   11.279630    0.000000    1.485000
   141  Cl    c    10.571859   -4.421569    2.428253    0.000000    1.485000
   142  Cl    c     2.023321   13.160174    2.427858    0.000000    1.485000
   143  Cl    c     9.786682    2.047701   -4.987471    0.000000    1.485000
   144  Cl    c    -1.570619    0.582769    9.193157    0.000000    1.485000
   145  Sc    c    -1.896493   -0.919617    7.210375    0.000000    3.000000
   146  Cl    c    -1.572371    7.786380   -1.600410    0.000000    1.485000
   147  Cl    c    13.405090    0.606068    9.235810    0.000000    1.485000
   148  Cl    c     4.076603   -3.903431   -1.607647    0.000000    1.485000
   149  Cl    c     7.756378   12.306127    9.244512    0.000000    1.485000
   150  Cl    c    13.402122    7.821287   -1.563273    0.000000    1.485000
   151  Sc    c    14.057503    3.194037   -1.768520    0.000000    3.000000
   152  Cl    c     6.310006    5.317870   13.833373    0.000000    1.485000
   153  Cl    c     7.041640   13.312612   -0.371062    0.000000    1.485000
   154  Cl    c    13.744885   -1.902282    1.639978    0.000000    1.485000
   155  Cl    c    -4.092359    3.915105    1.603526    0.000000    1.485000
   156  Sc    c    10.269316    1.361543   12.644186    0.000000    3.000000
   157  Cl    c     2.299045   -5.174156    5.807250    0.000000    1.485000
   158  Cl    c     0.593286    2.567558   12.442697    0.000000    1.485000
   159  Cl    c     6.257818   -5.537623    7.028876    0.000000    1.485000
   160  Cl    c     9.527958    5.948622   13.240159    0.000000    1.485000
   161  Cl    c     4.855450    0.083504   13.236941    0.000000    1.485000
   162  Cl    c    11.967649   -2.769799    8.434783    0.000000    1.485000
   163  Cl    c    13.814968    8.954639    8.448693    0.000000    1.485000
   164  Cl    c     2.038657    5.939224   13.232628    0.000000    1.485000
   165  Cl    c    14.539940    9.727777    5.051193    0.000000    1.485000
   166  Cl    c     6.958078   -2.927761   11.231885    0.000000    1.485000
   167  Cl    c     4.221159   11.946882   10.439811    0.000000    1.485000
   168  Cl    c     9.791861   -5.158067    5.826191    0.000000    1.485000
   169  Cl    c    -2.294057   -2.049732    5.004192    0.000000    1.485000
   170  Cl    c    -0.199268   -1.442131   -2.407571    0.000000    1.485000
   171  Cl    c    15.588517    6.211020    7.064590    0.000000    1.485000
   172  Sc    c    13.110985    6.345192   -3.574021    0.000000    3.000000
   173  Sc    c     7.447589   14.439867    1.832997    0.000000    3.000000
   174  Sc    c     5.576454   13.537752    9.050739    0.000000    3.000000
   175  Cl    c    -1.253143    1.663902   -3.806448    0.000000    1.485000
   176  Cl    c    -3.027480    4.423834   -2.402160    0.000000    1.485000
   177  Cl    c     0.532817   -4.285359   -0.406900    0.000000    1.485000
   178  Sc    c     8.397890    4.063540   14.453934    0.000000    3.000000
   179  Cl    c    12.762214   12.062264    7.066854    0.000000    1.485000
   180  Sc    c    -1.887987    6.310385   -3.606766    0.000000    3.000000
   181  Cl    c    -1.219321   12.597302    3.031544    0.000000    1.485000
   182  Cl    c     8.069126   -0.690798   -5.850941    0.000000    1.485000
   183  Sc    c    -0.045839    7.209473   12.659593    0.000000    3.000000
   184  Cl    c    14.537727    6.116839   10.453901    0.000000    1.485000
   185  Sc    c     9.411966   -6.306020    3.631392    0.000000    3.000000
   186  Cl    c    16.643791    6.714446    3.044776    0.000000    1.485000
   187  Cl    c    -5.116077    3.808511    5.003636    0.000000    1.485000
   188  Cl    c    -0.191593   -5.043370    3.006328    0.000000    1.485000
   189  Sc    c    -4.717669    4.938740    7.210947    0.000000    3.000000
   190  Cl    c    -4.070858    0.307483    7.007353    0.000000    1.485000
   191  Cl    c    13.745192    1.704839   -3.760998    0.000000    1.485000
   192  Sc    c    -3.767479    1.787355    9.014224    0.000000    3.000000
   193  Sc    c     1.895117   -6.308708    3.607107    0.000000    3.000000
   194  Cl    c     3.088434    2.844892   14.643994    0.000000    1.485000
   195  Cl    c     0.270631   12.303090    9.239398    0.000000    1.485000
   196  Cl    c     8.762443   -5.273195    9.220890    0.000000    1.485000
   197  Cl    c     3.095135   13.654429   -1.586577    0.000000    1.485000
   198  Cl    c    11.591032   -3.897400   -1.581158    0.000000    1.485000
   199  Cl    c     8.741834    5.574665   -6.983612    0.000000    1.485000
   200  Sc    c     2.779768   12.208675   -3.608330    0.000000    3.000000
   201  Sc    c     6.571538    6.800796   -7.220384    0.000000    3.000000
   202  Cl    c    15.589431    9.819647    1.662318    0.000000    1.485000
   203  Cl    c    -3.333758   10.124553    0.413448    0.000000    1.485000
   204  Cl    c    -0.512628    7.887341   -4.988416    0.000000    1.485000
   205  Cl    c    17.364696    3.876390    5.048857    0.000000    1.485000
   206  Cl    c     9.136021   -0.530518   13.832978    0.000000    1.485000
   207  Cl    c    13.817540   12.567977    3.048683    0.000000    1.485000
   208  Cl    c    15.190328    5.086709   -2.956761    0.000000    1.485000
   209  Cl    c    12.361795   10.934383   -2.966400    0.000000    1.485000
   210  Cl    c     4.225044   15.555274    5.039645    0.000000    1.485000
   211  Sc    c    -4.716355    8.554760    1.801146    0.000000    3.000000
   212  Cl    c     3.431542   -3.281667   12.430989    0.000000    1.485000
   213  Cl    c     5.260137   15.648746    1.647788    0.000000    1.485000
   214  Sc    c     0.899737    4.057801   14.443686    0.000000    3.000000
   215  Sc    c    14.950906   10.850192    7.258527    0.000000    3.000000
   216  Cl    c    16.641099    3.105755    8.450866    0.000000    1.485000
   217  Sc    c     8.445809   -6.757514    7.219390    0.000000    3.000000
   218  Cl    c    -2.225138   12.047198    7.034312    0.000000    1.485000
   219  Cl    c     9.100063   -4.159856   -3.790794    0.000000    1.485000
   220  Cl    c    11.714730   11.966946   10.456276    0.000000    1.485000
   221  Sc    c    10.280620   12.201082   -3.575253    0.000000    3.000000
   222  Sc    c    15.902615    7.699675    9.062974    0.000000    3.000000
   223  Cl    c     3.492918   14.790251    8.434623    0.000000    1.485000
   224  Cl    c    12.708956    5.223224   -5.778248    0.000000    1.485000
   225  Cl    c    12.761805    8.453482   12.466980    0.000000    1.485000
   226  Cl    c    -4.396423    6.426677    9.202657    0.000000    1.485000
   227  Cl    c    -4.394504   10.032908    3.800548    0.000000    1.485000
   228  Cl    c     1.260380   -5.265466    9.197531    0.000000    1.485000
   229  Cl    c     5.208282   -5.663876   10.448224    0.000000    1.485000
   230  Cl    c     1.637459   -0.558102   13.865524    0.000000    1.485000
   231  Cl    c    10.583066    2.849178   14.637881    0.000000    1.485000
   232  Cl    c     7.756126    8.699422   14.646199    0.000000    1.485000
   233  Cl    c     4.086184   -7.510077    3.795854    0.000000    1.485000
   234  Cl    c    16.238548   -1.637251    3.835461    0.000000    1.485000
   235  Cl    c     1.259519    5.551470   -6.997770    0.000000    1.485000
   236  Cl    c    16.233241    1.973883   -1.560269    0.000000    1.485000
   237  Cl    c    -0.432340   13.302909   -0.386752    0.000000    1.485000
   238  Cl    c     4.081586   -0.297072   -6.999781    0.000000    1.485000
   239  Cl    c     7.756987   15.908379    3.839679    0.000000    1.485000
   240  Cl    c     7.318903    2.208504   -7.790551    0.000000    1.485000
   241  Cl    c    10.580993   13.668070   -1.562631    0.000000    1.485000
   242  Sc    c    -0.934932   -4.066056    9.014831    0.000000    3.000000
   243  Cl    c    -3.354048    2.913953   11.213175    0.000000    1.485000
   244  Cl    c    15.186036   -2.139517    7.840450    0.000000    1.485000
   245  Cl    c     5.133034   -3.808480   -4.993102    0.000000    1.485000
   246  Cl    c     6.712135   15.416156    7.843766    0.000000    1.485000
   247  Sc    c    -0.044179   14.455005    1.804067    0.000000    3.000000
   248  Sc    c     9.408608    0.946999   -7.218587    0.000000    3.000000
   249  Cl    c    -5.852238    6.666068    3.000851    0.000000    1.485000
   250  Cl    c     0.540056   -0.675874   -5.818977    0.000000    1.485000
   251  Sc    c     5.573613    9.922255   14.452330    0.000000    3.000000
   252  Cl    c    -0.531237   -2.933952   11.213242    0.000000    1.485000
   253  Cl    c     1.590887   -4.181969   -3.809921    0.000000    1.485000
   254  Cl    c    12.352940    0.102001   13.234600    0.000000    1.485000
   255  Cl    c     5.128404   -7.415300    0.406395    0.000000    1.485000
   256  Cl    c     6.708065   11.804379   13.243986    0.000000    1.485000
   257  Cl    c     8.088792   13.406930   -3.759721    0.000000    1.485000
   258  Sc    c    -3.757831    9.013819   -1.796639    0.000000    3.000000
   259  Sc    c     1.898402    0.916916   -7.209703    0.000000    3.000000
   260  Cl    c     7.041231    2.480193   15.846248    0.000000    1.485000
   261  Cl    c    14.804431   -1.395996   -2.372037    0.000000    1.485000
   262  Cl    c    -3.021727   -2.806021    8.408856    0.000000    1.485000
   263  Cl    c    -5.106443    7.422118   -0.400943    0.000000    1.485000
   264  Sc    c    15.904398   11.311427    3.657784    0.000000    3.000000
   265  Cl    c    -1.184886    5.309023   13.824671    0.000000    1.485000
   266  Cl    c     8.029373   -7.872889    5.012671    0.000000    1.485000
   267  Sc    c     3.777693   -5.402119   -3.607569    0.000000    3.000000
   268  Cl    c     4.483661    8.057569   -7.797473    0.000000    1.485000
   269  Cl    c     2.386273   11.061614   -5.797743    0.000000    1.485000
   270  Sc    c     8.405356   14.900185   -1.765494    0.000000    3.000000
   271  Sc    c    17.777703    4.996594    7.256402    0.000000    3.000000
   272  Sc    c     3.736759   -1.814934   14.444564    0.000000    3.000000
   273  Sc    c     5.608015   -4.510075   12.644440    0.000000    3.000000
   274  Cl    c     3.488673   11.175369   13.833539    0.000000    1.485000
   275  Cl    c    10.918425   -3.270322   12.446082    0.000000    1.485000
   276  Cl    c     9.882296   11.076283   -5.779259    0.000000    1.485000
   277  Cl    c    -1.235807   -5.538068    7.005813    0.000000    1.485000
   278  Sc    c     0.943715   -6.763843    7.207800    0.000000    3.000000
   279  Sc    c    15.936633   -3.120395    1.829924    0.000000    3.000000
   280  Cl    c    -2.221029    8.425658   12.435165    0.000000    1.485000
   281  Sc    c     4.626062   13.072892   12.650073    0.000000    3.000000
   282  Cl    c     9.092586   -7.764003    1.621195    0.000000    1.485000
   283  Cl    c    17.372135    7.486170   -0.354696    0.000000    1.485000
   284  Cl    c     3.038032    2.815932   -8.383744    0.000000    1.485000
   285  Cl    c    10.989031   14.807328    8.452323    0.000000    1.485000
   286  Cl    c     8.808890   16.018721    0.442926    0.000000    1.485000
   287  Cl    c    -5.848165    3.047647    8.403255    0.000000    1.485000
   288  Cl    c    -2.277013    5.181874   -5.807206    0.000000    1.485000
   289  Sc    c    14.057331   -4.029615    9.048470    0.000000    3.000000
   290  Cl    c    18.419482    3.970047    1.658031    0.000000    1.485000
   291  Sc    c    17.780254    8.608231    1.851824    0.000000    3.000000
   292  Cl    c    13.811501    5.345288   13.853865    0.000000    1.485000
   293  Cl    c    -2.613568   10.897592   -2.990859    0.000000    1.485000
   294  Cl    c     4.216668    8.333252   15.840933    0.000000    1.485000
   295  Cl    c     5.863785   -6.648191   -2.986199    0.000000    1.485000
   296  Cl    c    14.797638   -5.006854    3.025886    0.000000    1.485000
   297  Cl    c     5.983834   14.656234   11.253845    0.000000    1.485000
   298  Cl    c    14.461990    7.936444   -4.959214    0.000000    1.485000
   299  Cl    c    11.718178   15.578770    5.053736    0.000000    1.485000
   300  Sc    c    18.731508    5.457709    3.655905    0.000000    3.000000
   301  Cl    c    13.743750   -5.509243    7.046591    0.000000    1.485000
   302  Sc    c    13.075775   13.553155    9.064932    0.000000    3.000000
   303  Cl    c     1.592874   -7.780970    1.601810    0.000000    1.485000
   304  Sc    c     5.579693   17.144032    3.643598    0.000000    3.000000
   305  Cl    c    -5.184788   -1.584978    0.393733    0.000000    1.485000
   306  Cl    c     0.261887    8.689465   14.651950    0.000000    1.485000
   307  Cl    c    -4.066057    7.529603   -3.796612    0.000000    1.485000
   308  Cl    c     5.928608   -3.014117   14.630315    0.000000    1.485000
   309  Sc    c    14.948337    7.237724   12.663190    0.000000    3.000000
   310  Cl    c     0.278712   15.913030    3.814477    0.000000    1.485000
   311  Cl    c    17.033119    9.586950    7.859941    0.000000    1.485000
   312  Cl    c    11.588731   -7.518911    3.824981    0.000000    1.485000
   313  Sc    c    15.939411    0.493368   -3.569897    0.000000    3.000000
   314  Sc    c     4.630093   16.687260    7.243891    0.000000    3.000000
   315  Cl    c     5.922956   11.419746   -6.982384    0.000000    1.485000
   316  Cl    c    11.585742   -0.266729   -6.992869    0.000000    1.485000
   317  Sc    c     0.918900   14.893913   -1.785063    0.000000    3.000000
   318  Cl    c    15.584500    2.602815   12.465436    0.000000    1.485000
   319  Cl    c     0.594696   13.412493   -3.786131    0.000000    1.485000
   320  Cl    c     6.261093    5.304479   -9.202128    0.000000    1.485000
   321  Sc    c     8.451210    4.097279   -8.996657    0.000000    3.000000
   322  Cl    c     1.339609   16.014838    0.418343    0.000000    1.485000
   323  Cl    c     4.152535   13.778266   -4.988529    0.000000    1.485000
   324  Cl    c    10.540704    2.851910   -8.380705    0.000000    1.485000
   325  Cl    c     7.707998    8.693649   -8.391507    0.000000    1.485000
   326  Cl    c    -5.446398    9.529920    7.814868    0.000000    1.485000
   327  Cl    c     3.030939   -8.017913    7.810557    0.000000    1.485000
   328  Cl    c     8.799739    5.193938   16.651622    0.000000    1.485000
   329  Cl    c    17.282455   -1.524325    0.440138    0.000000    1.485000
   330  Sc    c    -0.922655    6.773272   -7.203546    0.000000    3.000000
   331  Sc    c    -1.916641   13.530472    9.043471    0.000000    3.000000
   332  Cl    c    10.986294   11.195546   13.853674    0.000000    1.485000
   333  Sc    c    11.288068   -5.383363   -3.590475    0.000000    3.000000
   334  Cl    c    14.543447   13.337458   -0.349170    0.000000    1.485000
   335  Cl    c     0.540235   -7.888323    5.001892    0.000000    1.485000
   336  Cl    c    -0.181930    2.184058   -7.802347    0.000000    1.485000
   337  Sc    c    11.225711   -1.786587   14.447793    0.000000    3.000000
   338  Cl    c    -6.891095    6.164555    7.009499    0.000000    1.485000
   339  Cl    c    -2.625937    0.071589   13.212030    0.000000    1.485000
   340  Cl    c    14.453081   -2.895935   11.247516    0.000000    1.485000
   341  Cl    c    -4.456738   -0.813452   -3.004278    0.000000    1.485000
   342  Cl    c    16.303417   12.436029    5.862975    0.000000    1.485000
   343  Cl    c    -5.112810    0.200141   10.408146    0.000000    1.485000
   344  Cl    c     2.644462   -7.280790   -2.399152    0.000000    1.485000
   345  Cl    c    15.525239   -4.235846   -0.377237    0.000000    1.485000
   346  Cl    c    18.412980    0.361915    7.061822    0.000000    1.485000
   347  Cl    c     6.322059   16.160708   -2.367934    0.000000    1.485000
   348  Cl    c    -6.229203   -1.678487    3.781196    0.000000    1.485000
   349  Cl    c    -6.227619    1.929190   -1.619111    0.000000    1.485000
   350  Cl    c    -3.402856   -3.916992   -1.619371    0.000000    1.485000
   351  Cl    c    18.083632    6.479751    9.256938    0.000000    1.485000
   352  Cl    c    15.256874   12.330410    9.259783    0.000000    1.485000
   353  Cl    c    18.083515   10.088155    3.855593    0.000000    1.485000
   354  Sc    c     3.775118   -9.007213    1.800718    0.000000    3.000000
   355  Cl    c    12.764107   15.674179    1.665366    0.000000    1.485000
   356  Cl    c    -7.281959    1.426648    2.398877    0.000000    1.485000
   357  Cl    c    -4.459120   -4.422537    2.396486    0.000000    1.485000
   358  Cl    c    19.126942    6.585465    5.860590    0.000000    1.485000
   359  Cl    c    16.300477    8.825464   11.266374    0.000000    1.485000
   360  Cl    c    12.693073   -5.608516   10.439450    0.000000    1.485000
   361  Cl    c     1.304660    5.185653   16.639511    0.000000    1.485000
   362  Cl    c    10.528494   -8.009797    7.818505    0.000000    1.485000
   363  Cl    c    -0.777166   15.403817    7.833626    0.000000    1.485000
   364  Cl    c    11.983812    8.070614   -7.766936    0.000000    1.485000
   365  Cl    c    12.629530   -3.783937   -4.976682    0.000000    1.485000
   366  Cl    c    -0.447605    2.462178   15.825884    0.000000    1.485000
   367  Cl    c    -3.262590   11.927038   10.422881    0.000000    1.485000
   368  Cl    c     7.303899   -8.632217    8.421667    0.000000    1.485000
   369  Cl    c    10.140235   -7.255025   -2.383428    0.000000    1.485000
   370  Cl    c     2.441886   14.285276   12.449613    0.000000    1.485000
   371  Sc    c     0.952887    4.072110   -9.005989    0.000000    3.000000
   372  Cl    c    17.359098    0.265751   10.450767    0.000000    1.485000
   373  Cl    c     7.695787   -5.763733   13.231155    0.000000    1.485000
   374  Sc    c    14.953415   14.463328    1.855844    0.000000    3.000000
   375  Cl    c     4.136871   -0.674648   16.637046    0.000000    1.485000
   376  Cl    c    -0.784276   11.785941   13.228414    0.000000    1.485000
   377  Cl    c    16.646345   10.326881   -2.352423    0.000000    1.485000
   378  Cl    c    12.616105   -7.392543    0.424266    0.000000    1.485000
   379  Cl    c     9.933613   14.302077   12.467829    0.000000    1.485000
   380  Sc    c    14.072734    6.812771   -7.170823    0.000000    3.000000
   381  Sc    c    -6.586524    7.646192    9.016807    0.000000    3.000000
   382  Sc    c     4.729060   -8.547593   -1.798390    0.000000    3.000000
   383  Cl    c    19.467847    0.866306    3.047547    0.000000    1.485000
   384  Sc    c    12.122078   13.090864   12.664569    0.000000    3.000000
   385  Cl    c    11.709017    8.354975   15.856187    0.000000    1.485000
   386  Sc    c    18.728222    1.846946    9.061846    0.000000    3.000000
   387  Sc    c    13.072955    9.940566   14.468048    0.000000    3.000000
   388  Sc    c     3.747113   12.648795   -7.194738    0.000000    3.000000
   389  Sc    c     5.618652    9.952609   -8.995478    0.000000    3.000000
   390  Cl    c     5.267100    4.827079   17.847611    0.000000    1.485000
   391  Sc    c    -4.713772    1.329527   12.616007    0.000000    3.000000
   392  Sc    c    16.894505   -2.653877   -1.766769    0.000000    3.000000
   393  Cl    c    -6.891152    9.776817    1.606646    0.000000    1.485000
   394  Cl    c     0.217421    8.666444   -8.384209    0.000000    1.485000
   395  Cl    c    -2.223507   15.664322    1.611139    0.000000    1.485000
   396  Cl    c     5.867658   -3.034088   -8.386542    0.000000    1.485000
   397  Cl    c     9.097439   -0.534740   -9.209626    0.000000    1.485000
   398  Cl    c     5.990948   18.264264    5.847925    0.000000    1.485000
   399  Cl    c    11.638462   13.787551   -4.958960    0.000000    1.485000
   400  Sc    c    13.105372   -4.487610   12.647635    0.000000    3.000000
   401  Sc    c     7.448761    3.606769   18.055587    0.000000    3.000000
   402  Sc    c     3.781620   -1.783721   -9.006935    0.000000    3.000000
   403  Cl    c    -7.999164    4.263695    0.397602    0.000000    1.485000
   404  Sc    c    -6.582674   11.258327    3.612293    0.000000    3.000000
   405  Cl    c    -5.176479    2.025567   -5.005494    0.000000    1.485000
   406  Sc    c    -1.923982    9.910654   14.442964    0.000000    3.000000
   407  Cl    c    19.862284    7.347166    2.457317    0.000000    1.485000
   408  Sc    c     4.732748   -4.933405   -7.204543    0.000000    3.000000
   409  Sc    c    12.124349   16.703168    7.260850    0.000000    3.000000
   410  Sc    c    11.275346   -8.995265    1.814210    0.000000    3.000000
   411  Cl    c    17.035625   13.198403    2.457832    0.000000    1.485000
   412  Cl    c    -2.286180   -5.650422   10.406552    0.000000    1.485000
   413  Cl    c     2.648844   -3.667434   -7.800000    0.000000    1.485000
   414  Cl    c    15.530476   -0.626823   -5.774324    0.000000    1.485000
   415  Cl    c     3.495757   18.400029    3.036229    0.000000    1.485000
   416  Cl    c     2.443548   17.894656    7.049154    0.000000    1.485000
   417  Cl    c    -8.005554    0.654791    5.798812    0.000000    1.485000
   418  Cl    c    -2.351085   -3.823167   -5.008243    0.000000    1.485000
   419  Cl    c    19.859356    3.735095    7.859074    0.000000    1.485000
   420  Cl    c    -5.441987   13.141397    2.413469    0.000000    1.485000
   421  Cl    c     1.596586   -0.565187   -9.205555    0.000000    1.485000
   422  Cl    c     5.861046  -10.254264    2.414465    0.000000    1.485000
   423  Cl    c     5.975811   11.046172   16.652501    0.000000    1.485000
   424  Cl    c    17.285751    2.086962   -4.958591    0.000000    1.485000
   425  Cl    c    14.207284   15.438506    7.861860    0.000000    1.485000
   426  Sc    c    -5.593414   -2.708476   -1.813389    0.000000    3.000000
   427  Sc    c    15.898009    4.087348   14.467216    0.000000    3.000000
   428  Sc    c    -6.548246   -3.170876    1.786519    0.000000    3.000000
   429  Cl    c    -5.834646   10.277273   -2.394944    0.000000    1.485000
   430  Sc    c    -1.886800   -4.523888   12.614402    0.000000    3.000000
   431  Cl    c     2.382599   -3.400501   15.829051    0.000000    1.485000
   432  Cl    c     3.376631   -6.520876   -5.810867    0.000000    1.485000
   433  Cl    c     4.471162   -6.391817   13.837496    0.000000    1.485000
   434  Cl    c    -3.248702   15.527270    5.023243    0.000000    1.485000
   435  Cl    c    10.142249   -3.637380   -7.771707    0.000000    1.485000
   436  Cl    c     9.934385   17.910996    7.067814    0.000000    1.485000
   437  Cl    c    -5.183947   -5.194174    5.796648    0.000000    1.485000
   438  Cl    c    -2.356227   -7.433476    0.393056    0.000000    1.485000
   439  Cl    c    17.030053    5.974436   13.262631    0.000000    1.485000
   440  Cl    c    14.204751   11.827244   13.264668    0.000000    1.485000
   441  Cl    c    -6.163477   12.374049    5.818038    0.000000    1.485000
   442  Cl    c     9.865023   -3.368670   15.838469    0.000000    1.485000
   443  Cl    c    18.023457   -0.758666   -2.957970    0.000000    1.485000
   444  Cl    c     2.317610    5.655663  -10.389678    0.000000    1.485000
   445  Cl    c    14.807791    2.222988   -7.764863    0.000000    1.485000
   446  Cl    c     9.542306   16.783944   -2.959932    0.000000    1.485000
   447  Cl    c    -1.505505   14.643248   11.245886    0.000000    1.485000
   448  Sc    c    18.736054    9.071649   -1.747364    0.000000    3.000000
   449  Cl    c    13.366470   -6.634756   -2.974276    0.000000    1.485000
   450  Cl    c     9.802979    5.685786  -10.379459    0.000000    1.485000
   451  Sc    c    13.078147   17.166958    3.661234    0.000000    3.000000
   452  Cl    c     2.057299   16.772515   -2.980628    0.000000    1.485000
   453  Cl    c    -5.449311    5.919639   13.211969    0.000000    1.485000
   454  Cl    c     0.200663   -5.778845   13.212599    0.000000    1.485000
   455  Cl    c    11.621221   -0.653600   16.646474    0.000000    1.485000
   456  Cl    c    17.271925   -5.128450    5.840430    0.000000    1.485000
   457  Sc    c    11.245534   12.667624   -7.170735    0.000000    3.000000
   458  Cl    c    -7.277777    5.039218   -3.000359    0.000000    1.485000
   459  Cl    c    -6.167527    8.764095   11.219283    0.000000    1.485000
   460  Sc    c    20.608738    2.755060    1.851856    0.000000    3.000000
   461  Cl    c    -1.626597   -6.660333   -3.000164    0.000000    1.485000
   462  Cl    c    14.530650    2.505072   15.854594    0.000000    1.485000
   463  Cl    c    -1.230451    5.288389   -9.198916    0.000000    1.485000
   464  Cl    c    18.018250   -4.373921    2.439338    0.000000    1.485000
   465  Cl    c    19.130467   10.197257    0.459525    0.000000    1.485000
   466  Cl    c    19.470035    4.477391   -2.351725    0.000000    1.485000
   467  Cl    c    13.475760   14.676995   11.268862    0.000000    1.485000
   468  Cl    c     5.139030   -0.193623  -10.391491    0.000000    1.485000
   469  Cl    c     6.714789   19.023590    2.439849    0.000000    1.485000
   470  Cl    c    -7.926592    9.664547    5.005575    0.000000    1.485000
   471  Cl    c    -0.187462   -8.646625    8.408084    0.000000    1.485000
   472  Cl    c     3.432440   11.161417   -9.188275    0.000000    1.485000
   473  Cl    c    -9.053561    4.174014    3.784492    0.000000    1.485000
   474  Cl    c    -4.393078    2.822510   14.604519    0.000000    1.485000
   475  Sc    c    -6.544825    0.441458   -3.617936    0.000000    3.000000
   476  Cl    c    -3.401105   -7.525123    3.779378    0.000000    1.485000
   477  Cl    c    -1.567115   -3.026374   14.601868    0.000000    1.485000
   478  Cl    c    -3.398213   -0.309589   -7.018670    0.000000    1.485000
   479  Cl    c    -4.389567   13.642306   -1.592074    0.000000    1.485000
   480  Cl    c    15.254902    8.720628   14.662310    0.000000    1.485000
   481  Cl    c    20.910732    4.237344    3.855064    0.000000    1.485000
   482  Cl    c    13.412342   -2.995706   14.640633    0.000000    1.485000
   483  Cl    s     4.013486    3.890676    2.300160    0.000000   -2.485000
   484  Cl    s     4.036995    6.276094    5.830478    0.000000   -2.485000
   485  Cl    s     7.450253    1.391845    2.565591    0.000000   -2.485000
   486  Cl    s     4.408402    7.230528    2.546231    0.000000   -2.485000
   487  Cl    s     6.740808    3.889365    0.320664    0.000000   -2.485000
   488  Cl    s     2.288096    4.099678    5.141364    0.000000   -2.485000
   489  Cl    s     4.681705    0.670948    2.857047    0.000000   -2.485000
   490  Cl    s     4.598189    3.581314    7.855248    0.000000   -2.485000
   491  Cl    s     6.759686    0.485428    5.792210    0.000000   -2.485000
   492  Cl    s     9.941353    4.042211    5.075670    0.000000   -2.485000
   493  Cl    s     9.333684    6.715533    2.977558    0.000000   -2.485000
   494  Cl    s     8.239949    6.199786    7.185792    0.000000   -2.485000
   495  Cl    s     1.555081    6.817679    2.882925    0.000000   -2.485000
   496  Cl    s     5.196262    1.609254   -0.596604    0.000000   -2.485000
   497  Cl    s    11.060304    3.952209    1.792823    0.000000   -2.485000
   498  Cl    s     3.544831    0.290866    7.201665    0.000000   -2.485000
   499  Cl    s     9.338129    3.119746    8.377186    0.000000   -2.485000
   500  Cl    s     7.142574    9.873500    5.086436    0.000000   -2.485000
   501  Cl    s     1.808998    3.062068    8.460290    0.000000   -2.485000
   502  Cl    s     5.297637   -1.928867    5.121761    0.000000   -2.485000
   503  Cl    s    11.510044    6.380614    5.787444    0.000000   -2.485000
   504  Cl    s     2.436157    7.641406   -0.374710    0.000000   -2.485000
   505  Cl    s     4.654723    4.464056   -2.490693    0.000000   -2.485000
   506  Cl    s     5.723102    0.532387    9.108935    0.000000   -2.485000
   507  Cl    s     8.228611    9.793788    1.790948    0.000000   -2.485000
   508  Cl    s     2.929891    6.425316    9.156855    0.000000   -2.485000
   509  Cl    s     8.619703   -1.718230    3.717868    0.000000   -2.485000
   510  Cl    s     0.801914    6.235479    7.195536    0.000000   -2.485000
   511  Cl    s     6.478048   -1.888048    1.769878    0.000000   -2.485000
   512  Cl    s     2.828557    9.992653    3.646364    0.000000   -2.485000
   513  Cl    s     8.489449    1.892374   -1.762479    0.000000   -2.485000
   514  Cl    s     5.705654    7.766426   -1.740244    0.000000   -2.485000
   515  Cl    s     6.515583    8.964734    8.382092    0.000000   -2.485000
   516  Cl    s    -0.023107    1.403172    2.446141    0.000000   -2.485000
   517  Cl    s     9.968128    7.634237   -0.321370    0.000000   -2.485000
   518  Cl    s     3.999944    9.980436    0.331336    0.000000   -2.485000
   519  Cl    s     7.457166    5.035201   -2.975255    0.000000   -2.485000
   520  Cl    s     7.147926    6.269431   10.484338    0.000000   -2.485000
   521  Cl    s    12.139866    7.280433    2.473828    0.000000   -2.485000
   522  Cl    s    12.170071    0.879760    2.989054    0.000000   -2.485000
   523  Cl    s    11.069197    0.351936    7.181028    0.000000   -2.485000
   524  Cl    s    10.417202    6.441088    9.094778    0.000000   -2.485000
   525  Cl    s    13.239203    4.193289    3.695503    0.000000   -2.485000
   526  Cl    s    10.408048   10.037384    3.691322    0.000000   -2.485000
   527  Cl    s    -0.632181    4.078315    0.360578    0.000000   -2.485000
   528  Cl    s    12.142119    3.665906    7.868555    0.000000   -2.485000
   529  Cl    s     9.319134    9.519288    7.877548    0.000000   -2.485000
   530  Cl    s     1.092980   -1.668175    3.642234    0.000000   -2.485000
   531  Cl    s    -1.738066    4.161634    3.638368    0.000000   -2.485000
   532  Cl    s     1.077733    1.918324   -1.742401    0.000000   -2.485000
   533  Cl    s     7.453208   -2.219242    7.870919    0.000000   -2.485000
   534  Cl    s     3.990878    2.733157   11.184103    0.000000   -2.485000
   535  Cl    s    -0.646321    0.493918    5.748020    0.000000   -2.485000
   536  Cl    s     1.839293    9.517865    7.867395    0.000000   -2.485000
   537  Cl    s     2.180743   -1.742331    0.348662    0.000000   -2.485000
   538  Cl    s     9.688725   -1.717902    0.367490    0.000000   -2.485000
   539  Cl    s     0.663989    9.913660    1.707988    0.000000   -2.485000
   540  Cl    s     6.419961    1.676306   -3.792095    0.000000   -2.485000
   541  Cl    s     2.461554    0.347213   10.524102    0.000000   -2.485000
   542  Cl    s     4.656509   -2.796259    8.429929    0.000000   -2.485000
   543  Cl    s    12.794306    1.787965   -0.319887    0.000000   -2.485000
   544  Cl    s     6.515420   12.575574    2.986518    0.000000   -2.485000
   545  Cl    s     3.555024    7.563815   -3.677821    0.000000   -2.485000
   546  Cl    s    -0.351554    9.876817    5.081032    0.000000   -2.485000
   547  Cl    s     7.521545   -1.392384   -2.441064    0.000000   -2.485000
   548  Cl    s     5.422868   12.055932    7.189767    0.000000   -2.485000
   549  Cl    s     9.965206    0.417413   10.481554    0.000000   -2.485000
   550  Cl    s     8.686461   12.231527    5.788130    0.000000   -2.485000
   551  Cl    s    11.502707    9.995455    0.383274    0.000000   -2.485000
   552  Cl    s    12.174836    4.492752   -2.414642    0.000000   -2.485000
   553  Cl    s     2.813079   -0.836192   -2.942919    0.000000   -2.485000
   554  Cl    s    -0.010094    4.999877   -2.941526    0.000000   -2.485000
   555  Cl    s     8.683862    8.627778   11.195885    0.000000   -2.485000
   556  Cl    s    14.328115    4.146635    0.389654    0.000000   -2.485000
   557  Cl    s     8.243912    2.596720   12.588501    0.000000   -2.485000
   558  Cl    s    12.797776   -1.824010    5.081541    0.000000   -2.485000
   559  Cl    s     2.818090   -4.442131    2.448623    0.000000   -2.485000
   560  Cl    s    -0.310446    6.272661   10.482325    0.000000   -2.485000
   561  Cl    s    -2.834208    7.238988    2.447769    0.000000   -2.485000
   562  Cl    s     7.544375   -4.970531    2.977507    0.000000   -2.485000
   563  Cl    s    11.499706    2.777955   11.183588    0.000000   -2.485000
   564  Cl    s    -2.827150    0.834167    2.956036    0.000000   -2.485000
   565  Cl    s    14.332861    0.534892    5.788466    0.000000   -2.485000
   566  Cl    s     9.347986   10.339933   -2.418718    0.000000   -2.485000
   567  Cl    s    -2.200324    1.742067   -0.360945    0.000000   -2.485000
   568  Cl    s     1.196854   12.230045    5.785913    0.000000   -2.485000
   569  Cl    s    10.326183   -0.832203   -2.943516    0.000000   -2.485000
   570  Cl    s    -1.085552   -1.921132    1.742460    0.000000   -2.485000
   571  Cl    s    -0.963609    8.981021    8.399074    0.000000   -2.485000
   572  Cl    s     8.171889   -4.090658   -0.336860    0.000000   -2.485000
   573  Cl    s    14.975020    1.430407    2.477522    0.000000   -2.485000
   574  Cl    s     6.833586    7.757204   -5.050075    0.000000   -2.485000
   575  Cl    s     4.656595   10.875220   -2.973418    0.000000   -2.485000
   576  Cl    s    -0.011133   -2.206836    7.847237    0.000000   -2.485000
   577  Cl    s    -2.834200    3.636546    7.846966    0.000000   -2.485000
   578  Cl    s     1.849041   10.346797   -2.439756    0.000000   -2.485000
   579  Cl    s     5.321930    5.379324   -5.762064    0.000000   -2.485000
   580  Cl    s     9.319066   13.120361    2.471139    0.000000   -2.485000
   581  Cl    s    11.073265    7.567078   -3.621160    0.000000   -2.485000
   582  Cl    s    13.241408    0.589127    9.093438    0.000000   -2.485000
   583  Cl    s     5.424470    8.447651   12.588224    0.000000   -2.485000
   584  Cl    s     1.203933    8.642960   11.215955    0.000000   -2.485000
   585  Cl    s    10.358193   -4.454613    2.462007    0.000000   -2.485000
   586  Cl    s     7.595305   12.287587    9.100071    0.000000   -2.485000
   587  Cl    s    -3.455563    6.338316    5.755399    0.000000   -2.485000
   588  Cl    s    13.240156    7.805929   -1.706113    0.000000   -2.485000
   589  Cl    s     2.182629    1.859975   -5.038918    0.000000   -2.485000
   590  Cl    s     1.814530   13.117712    2.468417    0.000000   -2.485000
   591  Cl    s     9.672617    1.870548   -5.038608    0.000000   -2.485000
   592  Cl    s    -1.731172    0.563687    9.052760    0.000000   -2.485000
   593  Cl    s    -3.927085    3.928653    1.744792    0.000000   -2.485000
   594  Cl    s     3.915664   -3.919070   -1.746597    0.000000   -2.485000
   595  Cl    s     6.516778    5.360672   13.795266    0.000000   -2.485000
   596  Cl    s    -1.729813    7.769363   -1.740554    0.000000   -2.485000
   597  Cl    s    -2.178944   -1.871776    5.053924    0.000000   -2.485000
   598  Cl    s     9.318795    5.909594   13.278988    0.000000   -2.485000
   599  Cl    s     7.153778   13.485076   -0.317268    0.000000   -2.485000
   600  Cl    s    13.903197   -1.883631    1.781638    0.000000   -2.485000
   601  Cl    s     0.009872   -1.399983   -2.447049    0.000000   -2.485000
   602  Cl    s     0.755548    2.582347   12.584564    0.000000   -2.485000
   603  Cl    s     6.418034   -5.519909    7.172612    0.000000   -2.485000
   604  Cl    s     4.646149    0.044258   13.276041    0.000000   -2.485000
   605  Cl    s     6.845401   -3.104505   11.177501    0.000000   -2.485000
   606  Cl    s    12.173418   -2.726405    8.395255    0.000000   -2.485000
   607  Cl    s     1.830007    5.900372   13.271740    0.000000   -2.485000
   608  Cl    s     2.187515   -5.347184    5.753763    0.000000   -2.485000
   609  Cl    s     9.679756   -5.334344    5.771910    0.000000   -2.485000
   610  Cl    s     4.333944   12.120221   10.490363    0.000000   -2.485000
   611  Cl    s    14.020910    8.995682    8.410984    0.000000   -2.485000
   612  Cl    s    14.652747    9.900833    5.103611    0.000000   -2.485000
   613  Cl    s    -1.090684    1.682216   -3.662059    0.000000   -2.485000
   614  Cl    s    15.748166    6.228181    7.204713    0.000000   -2.485000
   615  Cl    s     0.647865   -4.108076   -0.353671    0.000000   -2.485000
   616  Cl    s    -2.816585    4.461029   -2.439739    0.000000   -2.485000
   617  Cl    s    -1.005310   12.627606    2.995420    0.000000   -2.485000
   618  Cl    s     8.179059   -0.512543   -5.786522    0.000000   -2.485000
   619  Cl    s     0.016958   -4.999283    2.965081    0.000000   -2.485000
   620  Cl    s    -5.001462    3.985483    5.053523    0.000000   -2.485000
   621  Cl    s    -3.908230    0.322832    7.149071    0.000000   -2.485000
   622  Cl    s    12.922594   12.078918    7.206763    0.000000   -2.485000
   623  Cl    s     2.925417    2.823193   14.500186    0.000000   -2.485000
   624  Cl    s     8.595810   -5.289821    9.080502    0.000000   -2.485000
   625  Cl    s    14.650974    6.290346   10.505661    0.000000   -2.485000
   626  Cl    s    13.904329    1.724263   -3.618943    0.000000   -2.485000
   627  Cl    s     0.110661   12.282246    9.093900    0.000000   -2.485000
[...]
    766 y         -0.851917     -0.851082     0.000835    Cartesian   -0.10
    766 z         16.584568     16.581846    -0.002722    Cartesian   -0.02
    767 x         17.479883     17.472936    -0.006948    Cartesian   -0.04
    767 y          0.434428      0.439582     0.005154    Cartesian    1.19
    767 z         10.506734     10.503533    -0.003201    Cartesian   -0.03
    768 x         -0.991520     -0.991953    -0.000433    Cartesian    0.04
    768 y         11.752142     11.745304    -0.006838    Cartesian   -0.06
    768 z         13.275385     13.267770    -0.007615    Cartesian   -0.06
    769 x         12.512495     12.503289    -0.009206    Cartesian   -0.07
    769 y         -7.573468     -7.568225     0.005243    Cartesian   -0.07
    769 z          0.371391      0.371798     0.000407    Cartesian    0.11
    770 x         -6.724629     -6.727136    -0.002507    Cartesian    0.04
    770 y          9.789611      9.791131     0.001519    Cartesian    0.02
    770 z          1.752726      1.748205    -0.004521    Cartesian   -0.26
    771 x         16.853713     16.852605    -0.001108    Cartesian   -0.01
    771 y         10.370507     10.367962    -0.002545    Cartesian   -0.02
    771 z         -2.389868     -2.390621    -0.000753    Cartesian    0.03
    772 x          5.871493      5.875380     0.003887    Cartesian    0.07
    772 y         18.094097     18.088028    -0.006069    Cartesian   -0.03
    772 z          5.797478      5.794985    -0.002493    Cartesian   -0.04
    773 x         10.094334     10.094070    -0.000264    Cartesian   -0.00
    773 y         14.323666     14.318955    -0.004711    Cartesian   -0.03
    773 z         12.608760     12.608304    -0.000456    Cartesian   -0.00
    774 x         11.530678     11.523635    -0.007043    Cartesian   -0.06
    774 y         13.613063     13.610963    -0.002101    Cartesian   -0.02
    774 z         -5.011307     -5.010759     0.000548    Cartesian   -0.01
    775 x         -2.057945     -2.058316    -0.000371    Cartesian    0.02
    775 y         15.659629     15.677367     0.017739    Cartesian    0.11
    775 z          1.769962      1.753616    -0.016346    Cartesian   -0.92
    776 x          9.253303      9.258227     0.004924    Cartesian    0.05
    776 y         -0.526093     -0.515393     0.010700    Cartesian   -2.03
    776 z         -9.041795     -9.062902    -0.021107    Cartesian    0.23
    777 x         11.824259     11.822349    -0.001910    Cartesian   -0.02
    777 y          8.527289      8.528931     0.001642    Cartesian    0.02
    777 z         15.912613     15.908375    -0.004237    Cartesian   -0.03
    778 x         19.653097     19.653122     0.000025    Cartesian    0.00
    778 y          7.306455      7.305900    -0.000555    Cartesian   -0.01
    778 z          2.498100      2.495851    -0.002249    Cartesian   -0.09
    779 x         19.676183     19.674379    -0.001804    Cartesian   -0.01
    779 y          0.906336      0.906923     0.000587    Cartesian    0.06
    779 z          3.011552      3.009573    -0.001979    Cartesian   -0.07
    780 x         16.827066     16.826696    -0.000369    Cartesian   -0.00
    780 y         13.158799     13.156705    -0.002094    Cartesian   -0.02
    780 z          2.499586      2.497033    -0.002553    Cartesian   -0.10
    781 x          5.424088      5.427456     0.003369    Cartesian    0.06
    781 y          4.841822      4.843161     0.001339    Cartesian    0.03
    781 z         17.994430     17.988670    -0.005761    Cartesian   -0.03
    782 x          5.660165      5.659669    -0.000496    Cartesian   -0.01
    782 y         -3.079944     -3.075817     0.004127    Cartesian   -0.13
    782 z         -8.359420     -8.349308     0.010112    Cartesian   -0.12
    783 x         -2.172233     -2.171296     0.000937    Cartesian   -0.04
    783 y         -5.470936     -5.473509    -0.002573    Cartesian    0.05
    783 z         10.457999     10.457199    -0.000800    Cartesian   -0.01
    784 x          0.008103      0.010132     0.002030    Cartesian   25.05
    784 y          8.624744      8.623378    -0.001366    Cartesian   -0.02
    784 z         -8.356448     -8.345965     0.010483    Cartesian   -0.13
    785 x         19.649536     19.650092     0.000557    Cartesian    0.00
    785 y          3.694628      3.694611    -0.000018    Cartesian   -0.00
    785 z          7.901006      7.897551    -0.003455    Cartesian   -0.04
    786 x          1.760587      1.757843    -0.002744    Cartesian   -0.16
    786 y         -0.543767     -0.546211    -0.002445    Cartesian    0.45
    786 z         -9.057544     -9.061018    -0.003473    Cartesian    0.04
    787 x          2.857220      2.857166    -0.000054    Cartesian   -0.00
    787 y         -3.627719     -3.626306     0.001413    Cartesian   -0.04
    787 z         -7.844482     -7.839031     0.005451    Cartesian   -0.07
    788 x         13.997473     13.998632     0.001159    Cartesian    0.01
    788 y         15.399316     15.396927    -0.002389    Cartesian   -0.02
    788 z          7.903978      7.901061    -0.002917    Cartesian   -0.04
    789 x          5.864371      5.861821    -0.002550    Cartesian   -0.04
    789 y         10.870444     10.869762    -0.000682    Cartesian   -0.01
    789 z         16.603290     16.597050    -0.006240    Cartesian   -0.04
    790 x         15.649913     15.643786    -0.006127    Cartesian   -0.04
    790 y         -0.452453     -0.452043     0.000410    Cartesian   -0.09
    790 z         -5.720706     -5.719813     0.000893    Cartesian   -0.02
    791 x          3.705373      3.703786    -0.001587    Cartesian   -0.04
    791 y         18.445694     18.439279    -0.006415    Cartesian   -0.03
    791 z          3.000260      2.998834    -0.001427    Cartesian   -0.05
    792 x          3.490513      3.490821     0.000308    Cartesian    0.01
    792 y         -6.340144     -6.344232    -0.004089    Cartesian    0.06
    792 z         -5.753692     -5.755523    -0.001831    Cartesian    0.03
    793 x         -8.125000     -8.112980     0.012020    Cartesian   -0.15
    793 y          4.095872      4.090173    -0.005700    Cartesian   -0.14
    793 z          0.342864      0.344805     0.001941    Cartesian    0.57
    794 x         -5.624435     -5.624085     0.000350    Cartesian   -0.01
    794 y         10.317486     10.315580    -0.001906    Cartesian   -0.02
    794 z         -2.437117     -2.432429     0.004688    Cartesian   -0.19
    795 x         -5.295407     -5.289650     0.005757    Cartesian   -0.11
    795 y          1.855355      1.852128    -0.003228    Cartesian   -0.17
    795 z         -5.061528     -5.058142     0.003386    Cartesian   -0.07
    796 x          2.605179      2.605935     0.000756    Cartesian    0.03
    796 y         17.917819     17.910520    -0.007299    Cartesian   -0.04
    796 z          7.190104      7.189587    -0.000517    Cartesian   -0.01
    797 x         17.182741     17.171737    -0.011003    Cartesian   -0.06
    797 y          1.908376      1.910500     0.002125    Cartesian    0.11
    797 z         -5.014279     -5.009749     0.004530    Cartesian   -0.09
    798 x         16.819943     16.821040     0.001097    Cartesian    0.01
    798 y          5.935145      5.934203    -0.000942    Cartesian   -0.02
    798 z         13.305398     13.301143    -0.004255    Cartesian   -0.03
    799 x          2.490890      2.497680     0.006790    Cartesian    0.27
    799 y         -3.212745     -3.222491    -0.009745    Cartesian    0.30
    799 z         15.878141     15.879124     0.000984    Cartesian    0.01
    800 x          4.683629      4.680500    -0.003129    Cartesian   -0.07
    800 y         -6.352664     -6.347899     0.004765    Cartesian   -0.08
    800 z         13.785865     13.796312     0.010447    Cartesian    0.08
    801 x          5.653043      5.652578    -0.000464    Cartesian   -0.01
    801 y        -10.303597    -10.294055     0.009542    Cartesian   -0.09
    801 z          2.446392      2.451009     0.004616    Cartesian    0.19
    802 x         17.816005     17.813552    -0.002453    Cartesian   -0.01
    802 y         -0.804079     -0.800313     0.003767    Cartesian   -0.47
    802 z         -2.923528     -2.920137     0.003391    Cartesian   -0.12
    803 x         13.993912     13.996026     0.002114    Cartesian    0.02
    803 y         11.787489     11.786281    -0.001208    Cartesian   -0.01
    803 z         13.306884     13.303388    -0.003496    Cartesian   -0.03
    804 x         -8.128561     -8.118940     0.009620    Cartesian   -0.12
    804 y          0.484046      0.481316    -0.002730    Cartesian   -0.56
    804 z          5.745770      5.745481    -0.000289    Cartesian   -0.01
    805 x          9.337911      9.333373    -0.004538    Cartesian   -0.05
    805 y         16.752952     16.741155    -0.011797    Cartesian   -0.07
    805 z         -2.919070     -2.920195    -0.001125    Cartesian    0.04
    806 x         -5.651082     -5.648509     0.002574    Cartesian   -0.05
    806 y         13.105778     13.099468    -0.006310    Cartesian   -0.05
    806 z          2.452337      2.452589     0.000253    Cartesian    0.01
    807 x         -1.065444     -1.067623    -0.002179    Cartesian    0.20
    807 y          5.308577      5.306141    -0.002436    Cartesian   -0.05
    807 z         -9.056058     -9.055303     0.000755    Cartesian   -0.01
    808 x         13.360648     13.361597     0.000949    Cartesian    0.01
    808 y         14.499944     14.500699     0.000755    Cartesian    0.01
    808 z         11.216134     11.215154    -0.000979    Cartesian   -0.01
    809 x         -1.624784     -1.620248     0.004536    Cartesian   -0.28
    809 y         14.464597     14.466522     0.001925    Cartesian    0.01
    809 z         11.184634     11.189215     0.004581    Cartesian    0.04
    810 x         -3.154050     -3.136570     0.017480    Cartesian   -0.55
    810 y         15.715595     15.703296    -0.012300    Cartesian   -0.08
    810 z          5.075301      5.074656    -0.000644    Cartesian   -0.01
    811 x         13.149320     13.154997     0.005677    Cartesian    0.04
    811 y         -6.674097     -6.673930     0.000167    Cartesian   -0.00
    811 z         -2.940764     -2.937389     0.003375    Cartesian   -0.11
    812 x         -2.469376     -2.464112     0.005264    Cartesian   -0.21
    812 y         -3.996989     -3.996721     0.000267    Cartesian   -0.01
    812 z         -5.063014     -5.060284     0.002730    Cartesian   -0.05
    813 x         10.349936     10.349342    -0.000594    Cartesian   -0.01
    813 y         -3.610045     -3.596463     0.013582    Cartesian   -0.38
    813 z         -7.828732     -7.812212     0.016520    Cartesian   -0.21
    814 x         -6.287907     -6.278044     0.009863    Cartesian   -0.16
    814 y         12.206407     12.199403    -0.007003    Cartesian   -0.06
    814 z          5.764492      5.764368    -0.000124    Cartesian   -0.00
    815 x          9.983606      9.979235    -0.004371    Cartesian   -0.04
    815 y         -3.195072     -3.193416     0.001656    Cartesian   -0.05
    815 z         15.893891     15.889573    -0.004318    Cartesian   -0.03
    816 x         19.019833     19.016383    -0.003450    Cartesian   -0.02
    816 y         10.018910     10.020815     0.001905    Cartesian    0.02
    816 z          0.407349      0.407224    -0.000125    Cartesian   -0.03
    817 x         10.097895     10.095412    -0.002483    Cartesian   -0.02
    817 y         17.935493     17.928068    -0.007425    Cartesian   -0.04
    817 z          7.205854      7.208214     0.002360    Cartesian    0.03
    818 x         17.812444     17.808038    -0.004406    Cartesian   -0.02
    818 y         -4.415906     -4.413922     0.001984    Cartesian   -0.04
    818 z          2.479378      2.476936    -0.002442    Cartesian   -0.10
    819 x         15.090519     15.092746     0.002227    Cartesian    0.01
    819 y          8.703529      8.703303    -0.000226    Cartesian   -0.00
    819 z         14.519967     14.519457    -0.000511    Cartesian   -0.00
    820 x          2.200870      2.203140     0.002270    Cartesian    0.10
    820 y          5.484855      5.480972    -0.003884    Cartesian   -0.07
    820 z        -10.448685    -10.440504     0.008180    Cartesian   -0.08
    821 x          0.020505      0.021381     0.000875    Cartesian    4.27
    821 y         -8.610855     -8.603307     0.007548    Cartesian   -0.09
    821 z          8.365723      8.367715     0.001993    Cartesian    0.02
    822 x          1.845195      1.848594     0.003399    Cartesian    0.18
    822 y         16.735278     16.728001    -0.007277    Cartesian   -0.04
    822 z         -2.934820     -2.939676    -0.004856    Cartesian    0.17
    823 x          9.693586      9.687668    -0.005918    Cartesian   -0.06
    823 y          5.502529      5.508474     0.005945    Cartesian    0.11
    823 z        -10.432935    -10.428975     0.003960    Cartesian   -0.04
    824 x          3.601240      3.595935    -0.005305    Cartesian   -0.15
    824 y         11.178594     11.178913     0.000318    Cartesian    0.00
    824 z         -9.038822     -9.045027    -0.006205    Cartesian    0.07
    825 x         11.516434     11.508317    -0.008117    Cartesian   -0.07
    825 y         -0.834243     -0.829552     0.004692    Cartesian   -0.56
    825 z         16.600318     16.591783    -0.008534    Cartesian   -0.05
    826 x         13.249865     13.249331    -0.000534    Cartesian   -0.00
    826 y         -3.018832     -3.013462     0.005370    Cartesian   -0.18
    826 z         14.501245     14.498211    -0.003034    Cartesian   -0.02
    827 x         20.749704     20.748280    -0.001424    Cartesian   -0.01
    827 y          4.222495      4.221185    -0.001310    Cartesian   -0.03
    827 z          3.711183      3.712790     0.001607    Cartesian    0.04
    828 x         -5.302529     -5.296885     0.005644    Cartesian   -0.11
    828 y         -5.368298     -5.367717     0.000581    Cartesian   -0.01
    828 z          5.744284      5.743449    -0.000835    Cartesian   -0.01
    829 x          6.508318      6.506515    -0.001804    Cartesian   -0.03
    829 y         18.993469     18.980922    -0.012547    Cartesian   -0.07
    829 z          2.485322      2.480208    -0.005114    Cartesian   -0.21
    830 x         17.175618     17.159639    -0.015979    Cartesian   -0.09
    830 y         -5.315277     -5.304799     0.010479    Cartesian   -0.20
    830 z          5.791533      5.787400    -0.004133    Cartesian   -0.07
    831 x         -2.472937     -2.468971     0.003966    Cartesian   -0.16
    831 y         -7.608815     -7.607031     0.001785    Cartesian   -0.02
    831 z          0.339892      0.340422     0.000530    Cartesian    0.16
    832 x         -7.820735     -7.812642     0.008093    Cartesian   -0.10
    832 y          9.845578      9.840749    -0.004829    Cartesian   -0.05
    832 z          5.058065      5.057303    -0.000762    Cartesian   -0.02
    833 x         -6.291469     -6.281769     0.009699    Cartesian   -0.15
    833 y          8.594580      8.589649    -0.004931    Cartesian   -0.06
    833 z         11.167398     11.164547    -0.002851    Cartesian   -0.03
    834 x         15.016621     15.014232    -0.002389    Cartesian   -0.02
    834 y          2.259972      2.263282     0.003310    Cartesian    0.15
    834 z         -7.811496     -7.803498     0.007998    Cartesian   -0.10
    835 x         -0.006142     -0.006843    -0.000701    Cartesian   11.41
    835 y         -5.822563     -5.818321     0.004242    Cartesian   -0.07
    835 z         13.255177     13.250274    -0.004903    Cartesian   -0.04
    836 x         -1.735566     -1.729082     0.006485    Cartesian   -0.37
    836 y         -3.054179     -3.044758     0.009421    Cartesian   -0.31
    836 z         14.469746     14.460629    -0.009117    Cartesian   -0.06
    837 x         14.650291     14.644645    -0.005646    Cartesian   -0.04
    837 y          2.674945      2.679133     0.004188    Cartesian    0.16
    837 z         15.911126     15.906780    -0.004346    Cartesian   -0.03
    838 x         -4.561598     -4.554326     0.007272    Cartesian   -0.16
    838 y          2.798165      2.803574     0.005409    Cartesian    0.19
    838 z         14.471232     14.462630    -0.008602    Cartesian   -0.06
    839 x         -1.836112     -1.833489     0.002623    Cartesian   -0.14
    839 y         -6.709444     -6.701050     0.008394    Cartesian   -0.13
    839 z         -2.972264     -2.963121     0.009143    Cartesian   -0.31
    840 x         -5.658205     -5.655797     0.002407    Cartesian   -0.04
    840 y          5.882125      5.879433    -0.002691    Cartesian   -0.05
    840 z         13.258149     13.250507    -0.007642    Cartesian   -0.06
    841 x          5.026901      5.025334    -0.001568    Cartesian   -0.03
    841 y         -0.367488     -0.368279    -0.000790    Cartesian    0.22
    841 z        -10.450171    -10.442257     0.007914    Cartesian   -0.08
    842 x         -7.488174     -7.483997     0.004178    Cartesian   -0.06
    842 y          4.995244      4.997533     0.002290    Cartesian    0.05
    842 z         -2.969292     -2.962391     0.006901    Cartesian   -0.23
    843 x         -3.569098     -3.562290     0.006807    Cartesian   -0.19
    843 y         -7.552887     -7.542550     0.010337    Cartesian   -0.14
    843 z          3.645212      3.639154    -0.006057    Cartesian   -0.17
    844 x         19.679744     19.676334    -0.003410    Cartesian   -0.02
    844 y          4.518163      4.518042    -0.000121    Cartesian   -0.00
    844 z         -2.391354     -2.389991     0.001363    Cartesian   -0.06
    845 x         -9.221160     -9.213533     0.007627    Cartesian   -0.08
    845 y          4.151801      4.156022     0.004221    Cartesian    0.10
    845 z          3.648184      3.643691    -0.004493    Cartesian   -0.12
    846 x         -4.550914     -4.548477     0.002438    Cartesian   -0.05
    846 y         13.633645     13.624499    -0.009146    Cartesian   -0.07
    846 z         -1.737487     -1.734178     0.003309    Cartesian   -0.19
    847 x         -3.561975     -3.558257     0.003718    Cartesian   -0.10
    847 y         -0.329233     -0.326209     0.003025    Cartesian   -0.92
    847 z         -7.160601     -7.158846     0.001755    Cartesian   -0.02
--------------------------------------------------------------------------------


  Time to end of optimisation  =      302.1675 seconds


  Peak dynamic memory used =     107.42 MB 


  Timing analysis for GULP :

--------------------------------------------------------------------------------
  Task / Subroutine                                          Time (Seconds)
--------------------------------------------------------------------------------
  Calculation of reciprocal space energy and derivatives          0.0097
  Calculation of real space energy and derivatives                0.2623
  Calculation for region 1 energy and derivatives (2-b)         115.2773
  Calculation for region 2a energy                              141.6534
  Calculation for region 2b energy                                0.0275
  Calculation and manipulation of Hessian matrix                  0.0371
  Calculation of matrix inversion                                43.9553
--------------------------------------------------------------------------------
  Total CPU time                                                302.1676
--------------------------------------------------------------------------------


  Dump file written as ScCl3.grs



  **** GULP has completed with   2 warnings - beware! ****

  Job Finished at 18:48.49  7th February   2022                               

