********************************************************************************
*                       GENERAL UTILITY LATTICE PROGRAM                        *
*                                 Julian Gale                                  *
*                       Curtin Institute for Computation                       *
*                    School of Molecular and Life Sciences                     *
*                    Curtin University, Western Australia                      *
********************************************************************************
* Version = 5.2.0 * Last modified =   1st June 2020                            *
********************************************************************************
*  optimise     - perform optimisation run                                     *
*  conp         - constant pressure calculation                                *
*  property     - calculate properties for final geometry                      *
*  defect       - perform defect calculation after bulk run                    *
*  compare      - compare initial and final structures                         *
********************************************************************************

  Job Started  at 18:43.41  7th February   2022                               

  Number of CPUs =     1


  Total number of configurations input =      1

********************************************************************************
*  Input for Configuration =   1                                               *
********************************************************************************

  Formula = Sc2Cl6                                                      

  Number of irreducible atoms/shells =      14


  Total number atoms/shells =      14

  Dimensionality = 3               :  Bulk   



  Cartesian lattice vectors (Angstroms) :

        7.453000    0.000000    0.000000
        4.624520    5.844744    0.000000
        4.624520    2.237970    5.399307

  Cell parameters (Angstroms/Degrees):

  a =       7.4530    alpha =  51.6480
  b =       7.4530    beta  =  51.6480
  c =       7.4530    gamma =  51.6480

  Initial cell volume =         235.198534 Angs**3

  Temperature of configuration =   0.00     K 

  Pressure of configuration =         0.000 GPa 

  Fractional coordinates of asymmetric unit :

--------------------------------------------------------------------------------
   No.  Atomic       x           y          z         Charge      Occupancy
        Label      (Frac)      (Frac)     (Frac)        (e)         (Frac)  
--------------------------------------------------------------------------------
      1 Sc    c    0.333900    0.333900    0.333900     3.00000    1.000000    
      2 Sc    c    0.666100 *  0.666100 *  0.666100 *   3.00000    1.000000    
      3 Cl    c    0.073700 *  0.443900 *  0.705300 *   1.48500    1.000000    
      4 Cl    c    0.294700 *  0.926300 *  0.556100 *   1.48500    1.000000    
      5 Cl    c    0.443900 *  0.705300 *  0.073700 *   1.48500    1.000000    
      6 Cl    c    0.556100 *  0.294700 *  0.926300 *   1.48500    1.000000    
      7 Cl    c    0.705300 *  0.073700 *  0.443900 *   1.48500    1.000000    
      8 Cl    c    0.926300 *  0.556100 *  0.294700 *   1.48500    1.000000    
      9 Cl    s    0.073700 *  0.443900 *  0.705300 *  -2.48500    1.000000    
     10 Cl    s    0.294700 *  0.926300 *  0.556100 *  -2.48500    1.000000    
     11 Cl    s    0.443900 *  0.705300 *  0.073700 *  -2.48500    1.000000    
     12 Cl    s    0.556100 *  0.294700 *  0.926300 *  -2.48500    1.000000    
     13 Cl    s    0.705300 *  0.073700 *  0.443900 *  -2.48500    1.000000    
     14 Cl    s    0.926300 *  0.556100 *  0.294700 *  -2.48500    1.000000    
--------------------------------------------------------------------------------



********************************************************************************
*  General input information                                                   *
********************************************************************************

  Species output for all configurations : 

--------------------------------------------------------------------------------
  Species    Type    Atomic    Atomic    Charge       Radii (Angs)     Library
                     Number     Mass       (e)     Cova   Ionic  VDW   Symbol
--------------------------------------------------------------------------------
    Sc       Core       21      44.96   3.000000   1.440  0.000  2.150          
    Cl       Core       17      35.45   1.485000   0.990  0.000  1.650          
    Cl       Shell      17       0.00  -2.485000   0.990  0.000  1.650          
--------------------------------------------------------------------------------


  Lattice summation method               =    Ewald          (3-D)
                                         =    Parry          (2-D)
                                         =    Saunders et al (1-D)
  Accuracy factor for lattice sums       =   12.000


  Analytic derivatives to be used

  Time limit = Infinity

  Maximum range for interatomic potentials =    100000.000000 Angstroms

  General interatomic potentials :

--------------------------------------------------------------------------------
Atom  Types   Potential      Parameter       Value         Units   Cutoffs(Ang)
  1     2                                                            Min /  Max 
--------------------------------------------------------------------------------
Cl   c Cl   s Spring (c-s)  Spring k 2       36.070000    eV*Ang^-2 0.000  0.800
                            Spring k 4       0.0000000    eV*Ang^-4 
--------------------------------------------------------------------------------
Sc   c Cl   s Buckingham    Buckingham A     2456.2200    eV        0.000 12.000
                            Buckingham rho  0.31470000    Ang       
                            Buckingham C     0.0000000    eV*Ang^6  
--------------------------------------------------------------------------------
Cl   s Cl   s Buckingham    Buckingham A     1227.2000    eV        0.000 12.000
                            Buckingham rho  0.32100000    Ang       
                            Buckingham C     14.530000    eV*Ang^6  
--------------------------------------------------------------------------------

********************************************************************************
*  Output for configuration   1                                                *
********************************************************************************


  Components of energy : 

--------------------------------------------------------------------------------
  Interatomic potentials     =          10.39244711 eV    
  Monopole - monopole (real) =         -30.86300284 eV    
  Monopole - monopole (recip)=         -65.52201623 eV    
  Monopole - monopole (total)=         -96.38501907 eV    
--------------------------------------------------------------------------------
  Total lattice energy       =         -85.99257196 eV    
--------------------------------------------------------------------------------
  Total lattice energy       =           -8296.9687 kJ/(mole unit cells)
--------------------------------------------------------------------------------


  Number of variables =       45

  Maximum number of calculations  =          1000
  Maximum Hessian update interval =            10
  Maximum step size               =   1.000000000
  Maximum parameter tolerance     =   0.000010000
  Maximum function  tolerance     =   0.000010000
  Maximum gradient  tolerance     =   0.001000000
  Maximum gradient  component     =   0.010000000

  Symmetry not applied to optimisation

  Cell parameters to be optimised using strains

  Newton-Raphson optimiser to be used

  BFGS hessian update to be used

  Lower half triangular hessian to be used

  Start of bulk optimisation :

  Cycle:      0 Energy:       -85.992572  Gnorm:      8.922860  CPU:    0.011
  ** Hessian calculated **
  Cycle:      1 Energy:       -91.630693  Gnorm:      3.248521  CPU:    0.023
  ** Hessian calculated **
  Cycle:      2 Energy:       -93.407926  Gnorm:      0.241259  CPU:    0.040
  Cycle:      3 Energy:       -93.727483  Gnorm:      0.379189  CPU:    0.060
  Cycle:      4 Energy:       -93.872131  Gnorm:      0.419846  CPU:    0.076
  Cycle:      5 Energy:       -93.916106  Gnorm:      0.216759  CPU:    0.089
  Cycle:      6 Energy:       -93.955402  Gnorm:      0.236635  CPU:    0.101
  Cycle:      7 Energy:       -94.003608  Gnorm:      0.337075  CPU:    0.114
  Cycle:      8 Energy:       -94.063864  Gnorm:      0.300404  CPU:    0.127
  Cycle:      9 Energy:       -94.105073  Gnorm:      0.327302  CPU:    0.138
  Cycle:     10 Energy:       -94.152801  Gnorm:      0.172167  CPU:    0.151
  Cycle:     11 Energy:       -94.162078  Gnorm:      0.129678  CPU:    0.162
  ** Hessian calculated **
  Cycle:     12 Energy:       -94.184232  Gnorm:      0.042568  CPU:    0.181
  Cycle:     13 Energy:       -94.185870  Gnorm:      0.019064  CPU:    0.193
  Cycle:     14 Energy:       -94.186129  Gnorm:      0.004834  CPU:    0.204
  Cycle:     15 Energy:       -94.186171  Gnorm:      0.003759  CPU:    0.216


  **** Optimisation achieved ****


  Final energy =     -94.18617309 eV
  Final Gnorm  =       0.00026742

  Components of energy : 

--------------------------------------------------------------------------------
  Interatomic potentials     =          21.32396821 eV    
  Monopole - monopole (real) =          81.06426209 eV    
  Monopole - monopole (recip)=        -196.57440339 eV    
  Monopole - monopole (total)=        -115.51014130 eV    
--------------------------------------------------------------------------------
  Total lattice energy       =         -94.18617309 eV    
--------------------------------------------------------------------------------
  Total lattice energy       =           -9087.5259 kJ/(mole unit cells)
--------------------------------------------------------------------------------

  Final fractional coordinates of atoms :

--------------------------------------------------------------------------------
   No.  Atomic        x           y          z          Radius
        Label       (Frac)      (Frac)     (Frac)       (Angs) 
--------------------------------------------------------------------------------
     1  Sc    c     0.333900    0.333900    0.333900    0.000000
     2  Sc    c     0.667797    0.667813    0.667799    0.000000
     3  Cl    c     0.075682    0.445383    0.703391    0.000000
     4  Cl    c     0.297892    0.926501    0.556250    0.000000
     5  Cl    c     0.445899    0.703300    0.075286    0.000000
     6  Cl    c     0.555797    0.298410    0.926421    0.000000
     7  Cl    c     0.703804    0.075207    0.445450    0.000000
     8  Cl    c     0.926009    0.556319    0.298315    0.000000
     9  Cl    s     0.065947    0.452571    0.677260    0.000000
    10  Cl    s     0.324076    0.936176    0.549072    0.000000
    11  Cl    s     0.453018    0.677183    0.065599    0.000000
    12  Cl    s     0.548677    0.324526    0.936109    0.000000
    13  Cl    s     0.677621    0.065531    0.452629    0.000000
    14  Cl    s     0.935746    0.549133    0.324445    0.000000
--------------------------------------------------------------------------------

  Final Cartesian lattice vectors (Angstroms) :

        7.492716    0.017674    0.015750
        4.666685    5.870017    0.017236
        4.663123    2.258191    5.420142


  Final cell parameters and derivatives :

--------------------------------------------------------------------------------
       a            7.492753 Angstrom     dE/de1(xx)     0.001502 eV/strain
       b            7.499023 Angstrom     dE/de2(yy)     0.001130 eV/strain
       c            7.498139 Angstrom     dE/de3(zz)     0.001402 eV/strain
       alpha       51.360329 Degrees      dE/de4(yz)     0.000184 eV/strain
       beta        51.381576 Degrees      dE/de5(xz)     0.000594 eV/strain
       gamma       51.379896 Degrees      dE/de6(xy)     0.000958 eV/strain
--------------------------------------------------------------------------------

  Primitive cell volume =           237.388320 Angs**3

  Density of cell =      2.116870 g/cm**3

  Non-primitive cell volume =           237.388320 Angs**3


  Final internal derivatives :

--------------------------------------------------------------------------------
   No.  Atomic          a             b             c           Radius
        Label          (eV)          (eV)          (eV)        (eV/Angs)
--------------------------------------------------------------------------------
      1 Sc    c       0.000000      0.000000      0.000000      0.000000
      2 Sc    c       0.001681      0.001454      0.000124      0.000000
      3 Cl    c      -0.002719     -0.000640     -0.000937      0.000000
      4 Cl    c       0.000986      0.001285      0.000118      0.000000
      5 Cl    c       0.001446      0.000724      0.001502      0.000000
      6 Cl    c      -0.000978      0.000527     -0.000482      0.000000
      7 Cl    c      -0.001726     -0.001514     -0.000663      0.000000
      8 Cl    c       0.000842     -0.000977      0.000232      0.000000
      9 Cl    s       0.003561      0.001253      0.002922      0.000000
     10 Cl    s      -0.002865     -0.003016     -0.001029      0.000000
     11 Cl    s       0.001191      0.003381      0.002375      0.000000
     12 Cl    s      -0.001348     -0.004134     -0.001709      0.000000
     13 Cl    s       0.002463      0.001978      0.000726      0.000000
     14 Cl    s      -0.002693     -0.000158     -0.002951      0.000000
--------------------------------------------------------------------------------
  Maximum abs         0.003561      0.004134      0.002951      0.000000
--------------------------------------------------------------------------------

  Comparison of initial and final structures : 

--------------------------------------------------------------------------------
  Parameter   Initial value   Final value   Difference    Units      Percent
--------------------------------------------------------------------------------
    Volume       235.198534    237.388320     2.189785    Angs**3      0.93
    a              7.453000      7.492753     0.039753    Angstroms    0.53
    b              7.453000      7.499023     0.046023    Angstroms    0.62
    c              7.453000      7.498139     0.045139    Angstroms    0.61
    alpha         51.648000     51.360329    -0.287671    Degrees     -0.56
    beta          51.648000     51.381576    -0.266424    Degrees     -0.52
    gamma         51.648000     51.379896    -0.268104    Degrees     -0.52
      1 x          0.333900      0.333900     0.000000    Fractional   0.00
      1 y          0.333900      0.333900     0.000000    Fractional   0.00
      1 z          0.333900      0.333900     0.000000    Fractional   0.00
      2 x          0.666100      0.667797     0.001697    Fractional   0.25
      2 y          0.666100      0.667813     0.001713    Fractional   0.26
      2 z          0.666100      0.667799     0.001699    Fractional   0.25
      3 x          0.073700      0.075682     0.001982    Fractional   2.69
      3 y          0.443900      0.445383     0.001483    Fractional   0.33
      3 z          0.705300      0.703391     0.001909    Fractional   0.27
      4 x          0.294700      0.297892     0.003192    Fractional   1.08
      4 y          0.926300      0.926501     0.000201    Fractional   0.02
      4 z          0.556100      0.556250     0.000150    Fractional   0.03
      5 x          0.443900      0.445899     0.001999    Fractional   0.45
      5 y          0.705300      0.703300     0.002000    Fractional   0.28
      5 z          0.073700      0.075286     0.001586    Fractional   2.15
      6 x          0.556100      0.555797     0.000303    Fractional   0.05
      6 y          0.294700      0.298410     0.003710    Fractional   1.26
      6 z          0.926300      0.926421     0.000121    Fractional   0.01
      7 x          0.705300      0.703804     0.001496    Fractional   0.21
      7 y          0.073700      0.075207     0.001507    Fractional   2.04
      7 z          0.443900      0.445450     0.001550    Fractional   0.35
      8 x          0.926300      0.926009     0.000291    Fractional   0.03
      8 y          0.556100      0.556319     0.000219    Fractional   0.04
      8 z          0.294700      0.298315     0.003615    Fractional   1.23
      9 x          0.073700      0.065947     0.007753    Fractional  10.52
      9 y          0.443900      0.452571     0.008671    Fractional   1.95
      9 z          0.705300      0.677260     0.028040    Fractional   3.98
     10 x          0.294700      0.324076     0.029376    Fractional   9.97
     10 y          0.926300      0.936176     0.009876    Fractional   1.07
     10 z          0.556100      0.549072     0.007028    Fractional   1.26
     11 x          0.443900      0.453018     0.009118    Fractional   2.05
     11 y          0.705300      0.677183     0.028117    Fractional   3.99
     11 z          0.073700      0.065599     0.008101    Fractional  10.99
     12 x          0.556100      0.548677     0.007423    Fractional   1.33
     12 y          0.294700      0.324526     0.029826    Fractional  10.12
     12 z          0.926300      0.936109     0.009809    Fractional   1.06
     13 x          0.705300      0.677621     0.027679    Fractional   3.92
     13 y          0.073700      0.065531     0.008169    Fractional  11.08
     13 z          0.443900      0.452629     0.008729    Fractional   1.97
     14 x          0.926300      0.935746     0.009446    Fractional   1.02
     14 y          0.556100      0.549133     0.006967    Fractional   1.25
     14 z          0.294700      0.324445     0.029745    Fractional  10.09
--------------------------------------------------------------------------------


  Born effective charge tensors : 

-------------------------------------------------------------------------------
  Atom             x           y             z
-------------------------------------------------------------------------------
    1 Sc    x       2.2285     -0.2571     -0.1710
            y      -0.2560      2.6360     -0.0847
            z      -0.1727     -0.0813      2.7043
-------------------------------------------------------------------------------
    2 Sc    x       2.2285     -0.2571     -0.1710
            y      -0.2560      2.6360     -0.0846
            z      -0.1727     -0.0813      2.7044
-------------------------------------------------------------------------------
    3 Cl    x      -0.8062      0.2256      0.0411
            y       0.2160     -0.8834     -0.1927
            z       0.0553     -0.1841     -0.8334
-------------------------------------------------------------------------------
    4 Cl    x      -0.7835      0.1157      0.0049
            y       0.1062     -0.9970      0.2420
            z      -0.0106      0.2360     -0.7424
-------------------------------------------------------------------------------
    5 Cl    x      -0.6388     -0.0842      0.1250
            y      -0.0662     -0.7556      0.0353
            z       0.1280      0.0294     -1.1285
-------------------------------------------------------------------------------
    6 Cl    x      -0.6388     -0.0842      0.1250
            y      -0.0662     -0.7556      0.0353
            z       0.1280      0.0294     -1.1285
-------------------------------------------------------------------------------
    7 Cl    x      -0.7835      0.1157      0.0049
            y       0.1062     -0.9970      0.2420
            z      -0.0106      0.2360     -0.7424
-------------------------------------------------------------------------------
    8 Cl    x      -0.8062      0.2256      0.0411
            y       0.2160     -0.8834     -0.1927
            z       0.0553     -0.1841     -0.8334
-------------------------------------------------------------------------------




  Elastic Constant Matrix: (Units=GPa)

-------------------------------------------------------------------------------
  Indices      1         2         3         4         5         6    
-------------------------------------------------------------------------------
       1      3.6214    8.6385    8.0518    0.5781   -2.6064   -3.9922
       2      8.6385   31.8741   23.2528   -4.4482   -5.2569  -13.8933
       3      8.0518   23.2528   39.7403   -4.9820  -10.4619   -9.4746
       4      0.5781   -4.4482   -4.9820    7.0058   -1.6207    0.0048
       5     -2.6064   -5.2569  -10.4619   -1.6207    4.2787    3.1180
       6     -3.9922  -13.8933   -9.4746    0.0048    3.1180    6.9568
-------------------------------------------------------------------------------


  Elastic Compliance Matrix: (Units=1/GPa)

-------------------------------------------------------------------------------
  Indices      1         2         3         4         5         6    
-------------------------------------------------------------------------------
       1    4.139658 -2.323081 -1.150848 -3.167637 -2.310781 -2.793293
       2   -2.323081  2.746677 -0.244172  1.461210 -1.287173  4.395552
       3   -1.150848 -0.244172  1.480853  1.927327  4.035931 -0.941456
       4   -3.167637  1.461210  1.927327  3.842313  4.931639  1.512259
       5   -2.310781 -1.287173  4.035931  4.931639 11.609238 -3.606608
       6   -2.793293  4.395552 -0.941456  1.512259 -3.606608  7.652260
-------------------------------------------------------------------------------

  Mechanical properties :

-------------------------------------------------------------------------------
  Convention :                    Reuss         Voigt         Hill
-------------------------------------------------------------------------------
  Bulk  Modulus (GPa)     =       1.07413      17.23576       9.15495
  Shear Modulus (GPa)     =       0.12749       6.00110       3.06430
-------------------------------------------------------------------------------
  Velocity S-wave (km/s)  =       0.24541       1.68371       1.20315
  Velocity P-wave (km/s)  =       0.76663       3.45282       2.50097
-------------------------------------------------------------------------------
  Compressibility (1/GPa) =    0.93098656
-------------------------------------------------------------------------------
  Stress axis :                     x             y             z
-------------------------------------------------------------------------------
  Youngs Moduli (GPa)     =       0.24157       0.36408       0.67529
-------------------------------------------------------------------------------
  Poissons Ratio (x)      =                     0.84578       0.77715
  Poissons Ratio (y)      =       0.56118                     0.16489
  Poissons Ratio (z)      =       0.27801       0.08890
-------------------------------------------------------------------------------


  Piezoelectric Strain Matrix: (Units=C/m**2)

-------------------------------------------------------------------------------
  Indices      1         2         3         4         5         6    
-------------------------------------------------------------------------------
       x    -0.00008   0.00014   0.00001  -0.00009   0.00009  -0.00005
       y    -0.00004  -0.00012   0.00007   0.00004  -0.00006  -0.00002
       z    -0.00006  -0.00018  -0.00004  -0.00005   0.00002   0.00008
-------------------------------------------------------------------------------


  Piezoelectric Stress Matrix: (Units=10**-11 C/N)

-------------------------------------------------------------------------------
  Indices      1         2         3         4         5         6    
-------------------------------------------------------------------------------
       x    -0.04806   0.01066   0.03304   0.05336   0.08812  -0.00159
       y     0.01097  -0.01943   0.00109  -0.01104   0.00386  -0.03303
       z     0.00895  -0.00670  -0.00499  -0.01237  -0.01368  -0.00769
-------------------------------------------------------------------------------


  Static dielectric constant tensor : 

-------------------------------------------------------------------------------
              x         y         z
-------------------------------------------------------------------------------
       x     2.55749  -0.36997  -0.24788
       y    -0.36997   3.14505  -0.11962
       z    -0.24788  -0.11962   3.24356
--------------------------------------------------------------------------------

  High frequency dielectric constant tensor : 

-------------------------------------------------------------------------------
              x         y         z
-------------------------------------------------------------------------------
       x     1.82639  -0.04056  -0.02716
       y    -0.04056   1.89075  -0.01312
       z    -0.02716  -0.01312   1.90154
-------------------------------------------------------------------------------

  Static refractive indices : 

-------------------------------------------------------------------------------
    1 =    1.51614      2 =    1.82309      3 =    1.82312
-------------------------------------------------------------------------------

  High frequency refractive indices : 

-------------------------------------------------------------------------------
    1 =    1.34090      2 =    1.38214      3 =    1.38215
-------------------------------------------------------------------------------


  Time to end of optimisation =       0.2368 seconds

********************************************************************************
*  Defect calculation for configuration   1 :                                  *
********************************************************************************



!!!!!!!!!!!!!!!!!!!!!!!!!!!!!!!!!!!!!!!!!!!!!!!!!!!!!!!!!!!!!!!!!!!!!!!!!!!!!!!!
!! WARNING : Ambiguous vacancy specifier used
!!!!!!!!!!!!!!!!!!!!!!!!!!!!!!!!!!!!!!!!!!!!!!!!!!!!!!!!!!!!!!!!!!!!!!!!!!!!!!!!



!!!!!!!!!!!!!!!!!!!!!!!!!!!!!!!!!!!!!!!!!!!!!!!!!!!!!!!!!!!!!!!!!!!!!!!!!!!!!!!!
!! WARNING : Ambiguous vacancy specifier used
!!!!!!!!!!!!!!!!!!!!!!!!!!!!!!!!!!!!!!!!!!!!!!!!!!!!!!!!!!!!!!!!!!!!!!!!!!!!!!!!

  Total number of defects =      2

  Total charge on defect  =   1.00

  Defect centre is at   0.0737   0.4439   0.7053  Frac

  Region 1 radius =  16.0000      Number of ions =   1005

  Region 2 radius =  24.0000      Number of ions =   2432

  Region 2a mode = 4 : screened electrostatics due to region 1 
                       neglect correction to region 1 forces from 2a
                       region 2a displacements based on defects only

  Region 2a ions will only interact with defects in region 1

  Vacancies:

--------------------------------------------------------------------------------
    Specification type     Symbol/Number         x          y          z
--------------------------------------------------------------------------------
    Atom                    Cl    core
    Atom                    Cl    shel
--------------------------------------------------------------------------------


  Components of defect energy : 

--------------------------------------------------------------------------------
  Region 1 - region 1                   =     13.22216542 eV
  Region 1 - region 2a (unrelaxed)      =     -3.68769096 eV
  Region 1 - 2a (relaxed - correction)  =     -0.19766482 eV
  Region 1 (Total)                      =      9.33680964 eV
  Region 2a                             =      0.09883963 eV
  Region 2b                             =     -0.19638630 eV
--------------------------------------------------------------------------------
  Total defect energy                   =      9.23926296 eV
--------------------------------------------------------------------------------

  Largest displacement in region 2 =   0.0080 Angstroms


  Number of variables =     3015

  Maximum number of calculations  =        1000
  Maximum Hessian update interval =          10
  Maximum step size               =   1.0000000
  Maximum parameter tolerance     =   0.0000100
  Maximum function  tolerance     =   0.0000100
  Maximum gradient  tolerance     =   0.0010000

  Symmetry adapted optimisation

  Newton-Raphson optimiser to be used

  BFGS hessian update to be used

  Lower half triangular hessian to be used

  Start of defect optimisation :

  Cycle:      0 Defect Energy:   9.239263  Gnorm:     0.005650  CPU:   20.191
  ** Hessian calculated **
  Cycle:      1 Defect Energy:   8.227377  Gnorm:     0.004637  CPU:   94.365
  Cycle:      2 Defect Energy:   7.248186  Gnorm:     0.003377  CPU:  132.878
  Cycle:      3 Defect Energy:   7.114107  Gnorm:     0.003161  CPU:  172.519
  Cycle:      4 Defect Energy:   6.360616  Gnorm:     0.001672  CPU:  212.693
  Cycle:      5 Defect Energy:   5.947438  Gnorm:     0.000400  CPU:  236.098
  Cycle:      6 Defect Energy:   5.909238  Gnorm:     0.000327  CPU:  241.429
  Cycle:      7 Defect Energy:   5.889804  Gnorm:     0.000272  CPU:  246.803
  Cycle:      8 Defect Energy:   5.873432  Gnorm:     0.000204  CPU:  252.122
  Cycle:      9 Defect Energy:   5.862278  Gnorm:     0.000143  CPU:  257.364
  Cycle:     10 Defect Energy:   5.854793  Gnorm:     0.000103  CPU:  262.589
  ** Hessian calculated **
  Cycle:     11 Defect Energy:   5.850463  Gnorm:     0.000073  CPU:  290.143
  Cycle:     12 Defect Energy:   5.848057  Gnorm:     0.000053  CPU:  293.029
  Cycle:     13 Defect Energy:   5.846566  Gnorm:     0.000038  CPU:  295.925
  Cycle:     14 Defect Energy:   5.845678  Gnorm:     0.000027  CPU:  298.907
  Cycle:     15 Defect Energy:   5.845177  Gnorm:     0.000020  CPU:  301.890
  Cycle:     16 Defect Energy:   5.844875  Gnorm:     0.000014  CPU:  304.771
  Cycle:     17 Defect Energy:   5.844712  Gnorm:     0.000010  CPU:  307.661
  Cycle:     18 Defect Energy:   5.844626  Gnorm:     0.000007  CPU:  310.541
  Cycle:     19 Defect Energy:   5.844581  Gnorm:     0.000005  CPU:  313.377
  Cycle:     20 Defect Energy:   5.844557  Gnorm:     0.000004  CPU:  316.229
  ** Hessian calculated **


  **** Optimisation achieved ****


  Final defect energy  =        5.84454999
  Final defect Gnorm   =        0.00000247

  Components of defect energy : 

--------------------------------------------------------------------------------
  Region 1 - region 1                   =     10.33636019 eV
  Region 1 - region 2a (unrelaxed)      =     -4.20722131 eV
  Region 1 - 2a (relaxed - correction)  =     -0.17599033 eV
  Region 1 (Total)                      =      5.95314855 eV
  Region 2a                             =      0.08797164 eV
  Region 2b                             =     -0.19657021 eV
--------------------------------------------------------------------------------
  Total defect energy                   =      5.84454999 eV
--------------------------------------------------------------------------------

  Largest displacement in region 2 =   0.0080 Angstroms

  Final coordinates of region 1 :

--------------------------------------------------------------------------------
   No.  Atomic        x           y           z          Radius      Charge
        Label       (Angs)      (Angs)      (Angs)       (Angs)       (e) 
--------------------------------------------------------------------------------
     1  Sc    c     3.284738    5.653398    3.779815    0.000000    3.000000
     2  Sc    c     5.633970    2.278070    1.527227    0.000000    3.000000
     3  Cl    c     3.936469    3.883064    2.231470    0.000000    1.485000
     4  Cl    c     4.194125    6.427302    5.921153    0.000000    1.485000
     5  Cl    c     7.681722    1.439571    2.585972    0.000000    1.485000
     6  Cl    c     6.865009    4.073788    0.367813    0.000000    1.485000
     7  Cl    c     4.624550    7.282169    2.503012    0.000000    1.485000
     8  Cl    c     2.174209    3.909978    5.114923    0.000000    1.485000
     9  Cl    c     4.477116    0.613023    2.920124    0.000000    1.485000
    10  Cl    c     9.832575    3.872677    5.024961    0.000000    1.485000
    11  Cl    c     4.811232    3.606086    7.819733    0.000000    1.485000
    12  Cl    c     9.136922    6.675817    3.013984    0.000000    1.485000
    13  Cl    c     6.865754    0.662922    5.860675    0.000000    1.485000
    14  Cl    c     8.084383    6.181504    7.049393    0.000000    1.485000
    15  Sc    c     2.735848    4.916439    7.395058    0.000000    3.000000
    16  Sc    c     6.590367   -0.582309    3.722564    0.000000    3.000000
    17  Cl    c     1.327005    6.808189    2.882794    0.000000    1.485000
    18  Cl    c     5.078781    1.445391   -0.700968    0.000000    1.485000
    19  Sc    c    11.236210    5.434470    3.637571    0.000000    3.000000
    20  Cl    c    10.906584    3.932424    1.652949    0.000000    1.485000
    21  Sc    c    10.279698    4.973557    7.244810    0.000000    3.000000
    22  Cl    c     3.386862    0.272617    7.065385    0.000000    1.485000
    23  Sc    c     2.639002    8.684107    1.717224    0.000000    3.000000
    24  Cl    c     9.135495    3.074534    8.415049    0.000000    1.485000
    25  Sc    c     6.526545    3.139515   -1.983398    0.000000    3.000000
    26  Cl    c     7.027817    9.702073    5.032818    0.000000    1.485000
    27  Sc    c     3.691633    1.726204    9.090926    0.000000    3.000000
    28  Sc    c     5.558960   -0.964594    7.294190    0.000000    3.000000
    29  Cl    c     1.599667    3.008290    8.507456    0.000000    1.485000
    30  Cl    c     5.178466   -2.110400    5.081703    0.000000    1.485000
    31  Cl    c     4.448845    4.432021   -2.451106    0.000000    1.485000
    32  Cl    c     2.330267    7.466266   -0.432385    0.000000    1.485000
    33  Cl    c     8.067282    9.775780    1.653462    0.000000    1.485000
    34  Cl    c     3.090183    6.457574    9.310090    0.000000    1.485000
    35  Cl    c     5.893215    0.550568    9.258090    0.000000    1.485000
    36  Cl    c     0.178101    1.443361    2.412018    0.000000    1.485000
    37  Cl    c     2.983644   10.011983    3.800694    0.000000    1.485000
    38  Cl    c     8.797599   -1.710278    3.855159    0.000000    1.485000
    39  Cl    c     0.642963    6.231490    7.055833    0.000000    1.485000
    40  Sc    c    10.270959    8.587455    1.828339    0.000000    3.000000
    41  Cl    c     6.329135   -1.904835    1.621591    0.000000    1.485000
    42  Cl    c     5.867072    7.778980   -1.591412    0.000000    1.485000
    43  Cl    c     8.656383    1.896381   -1.618206    0.000000    1.485000
    44  Cl    c    11.626170    6.556326    5.841610    0.000000    1.485000
    45  Cl    c     6.307023    8.918628    8.414665    0.000000    1.485000
    46  Cl    c     9.856526    7.464210   -0.374579    0.000000    1.485000
    47  Sc    c     8.398204    7.680324    9.050559    0.000000    3.000000
    48  Cl    c     7.033334    6.095425   10.434452    0.000000    1.485000
    49  Cl    c    11.970614    0.837164    3.026230    0.000000    1.485000
    50  Cl    c     4.130524   10.157635    0.382022    0.000000    1.485000
    51  Cl    c    10.913646    0.332968    7.040885    0.000000    1.485000
    52  Cl    c     7.674370    5.090292   -3.007767    0.000000    1.485000
    53  Cl    c    -0.518319    4.247527    0.412698    0.000000    1.485000
    54  Cl    c    12.350528    7.324438    2.435543    0.000000    1.485000
    55  Cl    c    -1.578841    4.182332    3.777132    0.000000    1.485000
    56  Cl    c     1.256102   -1.648414    3.781188    0.000000    1.485000
    57  Cl    c     1.234065    1.933940   -1.606830    0.000000    1.485000
    58  Cl    c    10.579011    6.458924    9.237896    0.000000    1.485000
    59  Cl    c    13.406180    4.207665    3.836765    0.000000    1.485000
    60  Cl    c    10.566818   10.054744    3.837522    0.000000    1.485000
    61  Sc    c     8.391703   11.288343    3.637508    0.000000    3.000000
    62  Cl    c    -0.531347    0.665977    5.805121    0.000000    1.485000
    63  Sc    c    13.109355    2.725810    1.830518    0.000000    3.000000
    64  Cl    c     2.289579   -1.572112    0.399402    0.000000    1.485000
    65  Sc    c     7.442638   10.829070    7.241985    0.000000    3.000000
    66  Cl    c    12.354179    3.702785    7.830556    0.000000    1.485000
    67  Cl    c     9.524224    9.559089    7.834845    0.000000    1.485000
    68  Cl    c     7.665465   -2.187777    7.840053    0.000000    1.485000
    69  Sc    c     3.716997    9.047030   -1.841696    0.000000    3.000000
    70  Cl    c     4.103603    2.906800   11.249670    0.000000    1.485000
    71  Sc    c     5.586177    6.354345   -3.639025    0.000000    3.000000
    72  Cl    c     2.041136    9.567325    7.826876    0.000000    1.485000
    73  Cl    c     9.805573   -1.545813    0.410895    0.000000    1.485000
    74  Sc    c    11.224060    1.815790    9.043232    0.000000    3.000000
    75  Sc    c     0.911213    7.721271    9.081381    0.000000    3.000000
    76  Sc    c     8.509463   -3.169242    1.807344    0.000000    3.000000
    77  Cl    c     0.490301    9.917471    1.575180    0.000000    1.485000
    78  Cl    c     6.272315    1.643798   -3.948837    0.000000    1.485000
    79  Sc    c    -1.924156    2.681195    1.792682    0.000000    3.000000
    80  Sc    c    -0.950014   -0.464902    3.607277    0.000000    3.000000
    81  Cl    c    12.685069    1.614991   -0.376267    0.000000    1.485000
    82  Cl    c     6.307177   12.537944    3.019175    0.000000    1.485000
    83  Cl    c     2.343136    0.166126   10.489061    0.000000    1.485000
    84  Cl    c     4.450381   -2.852788    8.479731    0.000000    1.485000
    85  Cl    c    -0.469654    9.704670    5.038091    0.000000    1.485000
    86  Cl    c     7.319254   -1.443072   -2.400924    0.000000    1.485000
    87  Cl    c     5.254023   12.034439    7.049404    0.000000    1.485000
    88  Cl    c     9.852728    0.242593   10.432489    0.000000    1.485000
    89  Sc    c     0.833326   11.328619    3.645508    0.000000    3.000000
    90  Sc    c     8.454962    0.405577   -3.649757    0.000000    3.000000
    91  Cl    c     3.390599    7.542465   -3.816674    0.000000    1.485000
    92  Cl    c    11.969640    4.452221   -2.375680    0.000000    1.485000
    93  Sc    c    -0.955871    3.149528   -1.809587    0.000000    3.000000
    94  Cl    c     0.195830    5.045758   -2.975969    0.000000    1.485000
    95  Cl    c     3.017220   -0.795400   -2.979111    0.000000    1.485000
    96  Cl    c     8.796071   12.407308    5.841425    0.000000    1.485000
    97  Cl    c    11.617436   10.173704    0.437331    0.000000    1.485000
    98  Cl    c     8.084935    2.580900   12.446410    0.000000    1.485000
    99  Sc    c     0.933772   -3.162952    1.798860    0.000000    3.000000
   100  Sc    c    11.226514    9.050012   -1.772726    0.000000    3.000000
   101  Cl    c    -2.630761    7.283008    2.407235    0.000000    1.485000
   102  Cl    c     3.025226   -4.401348    2.415107    0.000000    1.485000
   103  Cl    c     8.794179    8.804457   11.249364    0.000000    1.485000
   104  Cl    c    14.444443    4.324193    0.439042    0.000000    1.485000
   105  Cl    c    12.685818   -1.997557    5.027687    0.000000    1.485000
   106  Cl    c     9.141273   10.306517   -2.377462    0.000000    1.485000
   107  Cl    c    -0.422362    6.094722   10.434144    0.000000    1.485000
   108  Cl    c     7.337947   -5.013122    3.021398    0.000000    1.485000
   109  Sc    c    14.062729   -0.422708    3.639537    0.000000    3.000000
   110  Cl    c    -2.622723    3.678272    7.811814    0.000000    1.485000
   111  Cl    c     0.198436   -2.170565    7.811247    0.000000    1.485000
   112  Sc    c    13.105418   -0.884755    7.238316    0.000000    3.000000
   113  Sc    c     7.443164    7.215854   12.651000    0.000000    3.000000
   114  Cl    c    11.613964    2.954059   11.238419    0.000000    1.485000
   115  Cl    c    14.447364    0.711500    5.841477    0.000000    1.485000
   116  Sc    c    -0.057170   10.838850    7.247574    0.000000    3.000000
   117  Sc    c     9.416871   -2.699619   -1.794814    0.000000    3.000000
   118  Cl    c    -3.033969    0.792389    2.999247    0.000000    1.485000
   119  Cl    c    -2.312770    1.566958   -0.414376    0.000000    1.485000
   120  Cl    c     1.310875   12.409286    5.847880    0.000000    1.485000
   121  Cl    c    10.542468   -0.797078   -2.979221    0.000000    1.485000
   122  Cl    c     6.953297    7.933382   -5.002738    0.000000    1.485000
   123  Cl    c     4.865253   10.924397   -3.012736    0.000000    1.485000
   124  Cl    c     5.260244    8.431984   12.449528    0.000000    1.485000
   125  Cl    c    -1.178005    8.938410    8.438603    0.000000    1.485000
   126  Cl    c    -1.245782   -1.936974    1.601174    0.000000    1.485000
   127  Sc    c     0.926777    0.443177   -3.615047    0.000000    3.000000
   128  Cl    c     8.055253   -4.270920   -0.390820    0.000000    1.485000
   129  Cl    c     1.638230   10.312391   -2.400263    0.000000    1.485000
   130  Cl    c     5.212819    5.201027   -5.820112    0.000000    1.485000
   131  Cl    c    10.908917    7.549895   -3.758662    0.000000    1.485000
   132  Sc    c    -3.776122    5.401540    3.606818    0.000000    3.000000
   133  Cl    c    -3.335902    6.512974    5.809888    0.000000    1.485000
   134  Sc    c     1.881696   -2.706414   -1.808264    0.000000    3.000000
   135  Sc    c     2.757642    1.329791   12.686645    0.000000    3.000000
   136  Sc    c     6.565070   -4.100398    9.059132    0.000000    3.000000
   137  Cl    c     2.294767    2.034022   -4.989084    0.000000    1.485000
   138  Cl    c    15.188776    1.470754    2.439365    0.000000    1.485000
   139  Cl    c     9.526382   13.163448    2.430691    0.000000    1.485000
   140  Cl    c     1.318100    8.817731   11.282393    0.000000    1.485000
   141  Cl    c    10.573222   -4.422396    2.432005    0.000000    1.485000
   142  Cl    c     2.018594   13.165611    2.434669    0.000000    1.485000
   143  Cl    c     9.792225    2.039569   -4.989540    0.000000    1.485000
   144  Cl    c    -1.564499    0.582609    9.195445    0.000000    1.485000
   145  Sc    c    -1.891797   -0.919643    7.212854    0.000000    3.000000
   146  Cl    c    -1.575152    7.790075   -1.597492    0.000000    1.485000
   147  Cl    c    13.406699    0.604637    9.235176    0.000000    1.485000
   148  Cl    c     4.073662   -3.903661   -1.606899    0.000000    1.485000
   149  Cl    c     7.747928   12.301190    9.243483    0.000000    1.485000
   150  Cl    c    13.399888    7.822158   -1.562262    0.000000    1.485000
   151  Sc    c    14.059107    3.194978   -1.770553    0.000000    3.000000
   152  Cl    c     6.307762    5.317880   13.830603    0.000000    1.485000
   153  Cl    c     7.042693   13.316529   -0.373533    0.000000    1.485000
   154  Cl    c    13.749092   -1.903277    1.640084    0.000000    1.485000
   155  Cl    c    -4.089370    3.916434    1.605032    0.000000    1.485000
   156  Sc    c    10.269974    1.362272   12.644342    0.000000    3.000000
   157  Cl    c     2.299803   -5.176190    5.811712    0.000000    1.485000
   158  Cl    c     0.591937    2.564227   12.450797    0.000000    1.485000
   159  Cl    c     6.258228   -5.544224    7.034688    0.000000    1.485000
   160  Cl    c     9.525638    5.950643   13.238259    0.000000    1.485000
   161  Cl    c     4.854376    0.080134   13.245148    0.000000    1.485000
   162  Cl    c    11.968796   -2.771438    8.432251    0.000000    1.485000
   163  Cl    c    13.815216    8.955231    8.449951    0.000000    1.485000
   164  Cl    c     2.037533    5.935512   13.239002    0.000000    1.485000
   165  Cl    c    14.541526    9.727654    5.052571    0.000000    1.485000
   166  Cl    c     6.958860   -2.934359   11.237974    0.000000    1.485000
   167  Cl    c     4.211814   11.942964   10.438514    0.000000    1.485000
   168  Cl    c     9.791664   -5.163396    5.831920    0.000000    1.485000
   169  Cl    c    -2.290946   -2.048219    5.006265    0.000000    1.485000
   170  Cl    c    -0.200610   -1.439980   -2.406676    0.000000    1.485000
   171  Cl    c    15.589018    6.211943    7.065076    0.000000    1.485000
   172  Sc    c    13.106253    6.346361   -3.572893    0.000000    3.000000
   173  Sc    c     7.446931   14.440863    1.831753    0.000000    3.000000
   174  Sc    c     5.567508   13.532149    9.047902    0.000000    3.000000
   175  Cl    c    -1.252592    1.666560   -3.805125    0.000000    1.485000
   176  Cl    c    -3.026105    4.425812   -2.398903    0.000000    1.485000
   177  Cl    c     0.531433   -4.283859   -0.404369    0.000000    1.485000
   178  Sc    c     8.396094    4.064812   14.451040    0.000000    3.000000
   179  Cl    c    12.762763   12.062599    7.067045    0.000000    1.485000
   180  Sc    c    -1.887308    6.313097   -3.603176    0.000000    3.000000
   181  Cl    c    -1.223317   12.600515    3.036107    0.000000    1.485000
   182  Cl    c     8.072034   -0.696681   -5.852082    0.000000    1.485000
   183  Sc    c    -0.044667    7.207010   12.661547    0.000000    3.000000
   184  Cl    c    14.537774    6.116877   10.454405    0.000000    1.485000
   185  Sc    c     9.411777   -6.306429    3.634782    0.000000    3.000000
   186  Cl    c    16.645128    6.716897    3.048701    0.000000    1.485000
   187  Cl    c    -5.109663    3.809473    5.006192    0.000000    1.485000
   188  Cl    c    -0.190224   -5.041088    3.009790    0.000000    1.485000
   189  Sc    c    -4.710219    4.940952    7.212701    0.000000    3.000000
   190  Cl    c    -4.064928    0.309752    7.009525    0.000000    1.485000
   191  Cl    c    13.748008    1.706554   -3.763920    0.000000    1.485000
   192  Sc    c    -3.760284    1.789139    9.016415    0.000000    3.000000
   193  Sc    c     1.896651   -6.306808    3.609891    0.000000    3.000000
   194  Cl    c     3.085583    2.842341   14.651853    0.000000    1.485000
   195  Cl    c     0.260789   12.308352    9.244198    0.000000    1.485000
   196  Cl    c     8.762456   -5.280956    9.225445    0.000000    1.485000
   197  Cl    c     3.092180   13.655782   -1.583467    0.000000    1.485000
   198  Cl    c    11.593177   -3.907776   -1.586794    0.000000    1.485000
   199  Cl    c     8.743369    5.570453   -6.984118    0.000000    1.485000
   200  Sc    c     2.778395   12.209135   -3.605034    0.000000    3.000000
   201  Sc    c     6.573328    6.797551   -7.219384    0.000000    3.000000
   202  Cl    c    15.591054    9.820475    1.663876    0.000000    1.485000
   203  Cl    c    -3.338200   10.127865    0.413885    0.000000    1.485000
   204  Cl    c    -0.510001    7.888020   -4.985232    0.000000    1.485000
   205  Cl    c    17.365503    3.877192    5.049888    0.000000    1.485000
   206  Cl    c     9.137149   -0.529374   13.834422    0.000000    1.485000
   207  Cl    c    13.818010   12.566848    3.049087    0.000000    1.485000
   208  Cl    c    15.188005    5.089592   -2.958953    0.000000    1.485000
   209  Cl    c    12.361105   10.936512   -2.963218    0.000000    1.485000
   210  Cl    c     4.218530   15.554830    5.035741    0.000000    1.485000
   211  Sc    c    -4.717256    8.555659    1.801877    0.000000    3.000000
   212  Cl    c     3.432173   -3.287154   12.440187    0.000000    1.485000
   213  Cl    c     5.259586   15.650256    1.645856    0.000000    1.485000
   214  Sc    c     0.896619    4.055618   14.451982    0.000000    3.000000
   215  Sc    c    14.951312   10.850498    7.259699    0.000000    3.000000
   216  Cl    c    16.639837    3.105206    8.450063    0.000000    1.485000
   217  Sc    c     8.446088   -6.765631    7.223680    0.000000    3.000000
   218  Cl    c    -2.233046   12.049250    7.039217    0.000000    1.485000
   219  Cl    c     9.100672   -4.168637   -3.792998    0.000000    1.485000
   220  Cl    c    11.714840   11.966837   10.456156    0.000000    1.485000
   221  Sc    c    10.280627   12.204431   -3.572122    0.000000    3.000000
   222  Sc    c    15.902672    7.699934    9.063796    0.000000    3.000000
   223  Cl    c     3.484578   14.784865    8.429709    0.000000    1.485000
   224  Cl    c    12.699604    5.225220   -5.776378    0.000000    1.485000
   225  Cl    c    12.761596    8.453539   12.466857    0.000000    1.485000
   226  Cl    c    -4.390013    6.432455    9.201987    0.000000    1.485000
   227  Cl    c    -4.395515   10.033108    3.802273    0.000000    1.485000
   228  Cl    c     1.261352   -5.270462    9.199950    0.000000    1.485000
   229  Cl    c     5.207552   -5.668242   10.454920    0.000000    1.485000
   230  Cl    c     1.637593   -0.562886   13.871943    0.000000    1.485000
   231  Cl    c    10.582038    2.851661   14.636991    0.000000    1.485000
   232  Cl    c     7.753914    8.699920   14.644716    0.000000    1.485000
   233  Cl    c     4.088703   -7.506863    3.795865    0.000000    1.485000
   234  Cl    c    16.241873   -1.637207    3.836420    0.000000    1.485000
   235  Cl    c     1.259944    5.552646   -6.997752    0.000000    1.485000
   236  Cl    c    16.236617    1.977328   -1.564360    0.000000    1.485000
   237  Cl    c    -0.435961   13.305187   -0.379462    0.000000    1.485000
   238  Cl    c     4.080604   -0.296120   -6.999996    0.000000    1.485000
   239  Cl    c     7.754299   15.907355    3.840322    0.000000    1.485000
   240  Cl    c     7.322776    2.201043   -7.789607    0.000000    1.485000
   241  Cl    c    10.582002   13.674238   -1.561882    0.000000    1.485000
   242  Sc    c    -0.931698   -4.067808    9.015675    0.000000    3.000000
   243  Cl    c    -3.346043    2.912959   11.216703    0.000000    1.485000
   244  Cl    c    15.187200   -2.140651    7.838610    0.000000    1.485000
   245  Cl    c     5.126639   -3.805307   -4.992336    0.000000    1.485000
   246  Cl    c     6.704751   15.407946    7.838934    0.000000    1.485000
   247  Sc    c    -0.049277   14.460449    1.810462    0.000000    3.000000
   248  Sc    c     9.413508    0.938803   -7.220984    0.000000    3.000000
   249  Cl    c    -5.850578    6.666203    3.002725    0.000000    1.485000
   250  Cl    c     0.538926   -0.674220   -5.818583    0.000000    1.485000
   251  Sc    c     5.569722    9.920866   14.454203    0.000000    3.000000
   252  Cl    c    -0.527346   -2.935471   11.214258    0.000000    1.485000
   253  Cl    c     1.586718   -4.181811   -3.808044    0.000000    1.485000
   254  Cl    c    12.354034    0.103954   13.236749    0.000000    1.485000
   255  Cl    c     5.127695   -7.413203    0.407045    0.000000    1.485000
   256  Cl    c     6.702571   11.800885   13.241377    0.000000    1.485000
   257  Cl    c     8.090334   13.412475   -3.759251    0.000000    1.485000
   258  Sc    c    -3.761150    9.017033   -1.796552    0.000000    3.000000
   259  Sc    c     1.897583    0.918163   -7.209414    0.000000    3.000000
   260  Cl    c     7.038312    2.481810   15.841752    0.000000    1.485000
   261  Cl    c    14.805636   -1.391043   -2.370894    0.000000    1.485000
   262  Cl    c    -3.017876   -2.806090    8.410470    0.000000    1.485000
   263  Cl    c    -5.109384    7.424792   -0.400871    0.000000    1.485000
   264  Sc    c    15.905214   11.312043    3.659370    0.000000    3.000000
   265  Cl    c    -1.186210    5.308151   13.826733    0.000000    1.485000
   266  Cl    c     8.029128   -7.875403    5.013559    0.000000    1.485000
   267  Sc    c     3.773919   -5.401447   -3.607261    0.000000    3.000000
   268  Cl    c     4.484897    8.054598   -7.794856    0.000000    1.485000
   269  Cl    c     2.386110   11.060485   -5.794064    0.000000    1.485000
   270  Sc    c     8.406396   14.906763   -1.765791    0.000000    3.000000
   271  Sc    c    17.777517    4.996518    7.257854    0.000000    3.000000
   272  Sc    c     3.737041   -1.819289   14.453494    0.000000    3.000000
   273  Sc    c     5.608860   -4.516094   12.652179    0.000000    3.000000
   274  Cl    c     3.483580   11.172104   13.834245    0.000000    1.485000
   275  Cl    c    10.918996   -3.266971   12.444471    0.000000    1.485000
   276  Cl    c     9.879826   11.076379   -5.773772    0.000000    1.485000
   277  Cl    c    -1.234428   -5.541086    7.007941    0.000000    1.485000
   278  Sc    c     0.944498   -6.768682    7.209923    0.000000    3.000000
   279  Sc    c    15.940563   -3.121948    1.832137    0.000000    3.000000
   280  Cl    c    -2.219066    8.424953   12.431937    0.000000    1.485000
   281  Sc    c     4.619464   13.068656   12.648404    0.000000    3.000000
   282  Cl    c     9.091732   -7.760065    1.620793    0.000000    1.485000
   283  Cl    c    17.372808    7.486172   -0.351007    0.000000    1.485000
   284  Cl    c     3.036985    2.816919   -8.384148    0.000000    1.485000
   285  Cl    c    10.988896   14.807678    8.452738    0.000000    1.485000
   286  Cl    c     8.809495   16.021491    0.444806    0.000000    1.485000
   287  Cl    c    -5.840637    3.050625    8.406480    0.000000    1.485000
   288  Cl    c    -2.274893    5.181979   -5.802592    0.000000    1.485000
   289  Sc    c    14.058230   -4.031797    9.045222    0.000000    3.000000
   290  Cl    c    18.419104    3.973117    1.659977    0.000000    1.485000
   291  Sc    c    17.781705    8.609450    1.854276    0.000000    3.000000
   292  Cl    c    13.810962    5.345253   13.854180    0.000000    1.485000
   293  Cl    c    -2.618012   10.900315   -2.989453    0.000000    1.485000
   294  Cl    c     4.215270    8.333263   15.843576    0.000000    1.485000
   295  Cl    c     5.860258   -6.646625   -2.986788    0.000000    1.485000
   296  Cl    c    14.801985   -5.007167    3.029559    0.000000    1.485000
   297  Cl    c     5.976237   14.651657   11.250104    0.000000    1.485000
   298  Cl    c    14.454789    7.937835   -4.959648    0.000000    1.485000
   299  Cl    c    11.718799   15.577396    5.054428    0.000000    1.485000
   300  Sc    c    18.732479    5.459206    3.658312    0.000000    3.000000
   301  Cl    c    13.747133   -5.511959    7.043442    0.000000    1.485000
   302  Sc    c    13.075587   13.553436    9.065043    0.000000    3.000000
   303  Cl    c     1.593301   -7.776591    1.603219    0.000000    1.485000
   304  Sc    c     5.577266   17.143250    3.643188    0.000000    3.000000
   305  Cl    c    -5.183030   -1.585225    0.394528    0.000000    1.485000
   306  Cl    c     0.260391    8.690389   14.651750    0.000000    1.485000
   307  Cl    c    -4.066403    7.530692   -3.795602    0.000000    1.485000
   308  Cl    c     5.929446   -3.018327   14.637026    0.000000    1.485000
   309  Sc    c    14.947951    7.237694   12.663574    0.000000    3.000000
   310  Cl    c     0.271596   15.919175    3.820059    0.000000    1.485000
   311  Cl    c    17.033613    9.587560    7.861675    0.000000    1.485000
   312  Cl    c    11.588654   -7.519909    3.823653    0.000000    1.485000
   313  Sc    c    15.942229    0.495088   -3.572706    0.000000    3.000000
   314  Sc    c     4.623648   16.682516    7.241932    0.000000    3.000000
   315  Cl    c     5.921321   11.418639   -6.982640    0.000000    1.485000
   316  Cl    c    11.589547   -0.276179   -6.997238    0.000000    1.485000
   317  Sc    c     0.914897   14.894300   -1.780205    0.000000    3.000000
   318  Cl    c    15.586747    2.602778   12.464934    0.000000    1.485000
   319  Cl    c     0.592258   13.411813   -3.781484    0.000000    1.485000
   320  Cl    c     6.261998    5.299160   -9.199863    0.000000    1.485000
   321  Sc    c     8.452635    4.091123   -8.996086    0.000000    3.000000
   322  Cl    c     1.337072   16.016709    0.422509    0.000000    1.485000
   323  Cl    c     4.150208   13.778253   -4.987297    0.000000    1.485000
   324  Cl    c    10.543368    2.847088   -8.380567    0.000000    1.485000
   325  Cl    c     7.707758    8.691198   -8.391702    0.000000    1.485000
   326  Cl    c    -5.447312    9.535362    7.815769    0.000000    1.485000
   327  Cl    c     3.029764   -8.024635    7.810915    0.000000    1.485000
   328  Cl    c     8.796503    5.195455   16.649342    0.000000    1.485000
   329  Cl    c    17.285821   -1.525547    0.441569    0.000000    1.485000
   330  Sc    c    -0.922671    6.774422   -7.200090    0.000000    3.000000
   331  Sc    c    -1.927275   13.536462    9.046734    0.000000    3.000000
   332  Cl    c    10.985923   11.195863   13.854088    0.000000    1.485000
   333  Sc    c    11.289248   -5.393207   -3.597782    0.000000    3.000000
   334  Cl    c    14.547905   13.337169   -0.349895    0.000000    1.485000
   335  Cl    c     0.540788   -7.888596    5.001706    0.000000    1.485000
   336  Cl    c    -0.182872    2.184905   -7.802487    0.000000    1.485000
   337  Sc    c    11.226707   -1.785830   14.447784    0.000000    3.000000
   338  Cl    c    -6.884041    6.165377    7.008188    0.000000    1.485000
   339  Cl    c    -2.625324    0.069352   13.218135    0.000000    1.485000
   340  Cl    c    14.453543   -2.897055   11.244663    0.000000    1.485000
   341  Cl    c    -4.456575   -0.814314   -3.004185    0.000000    1.485000
   342  Cl    c    16.303944   12.436692    5.864600    0.000000    1.485000
   343  Cl    c    -5.106636    0.200883   10.408394    0.000000    1.485000
   344  Cl    c     2.641720   -7.281556   -2.399795    0.000000    1.485000
   345  Cl    c    15.526849   -4.235712   -0.375393    0.000000    1.485000
   346  Cl    c    18.416028    0.361944    7.061045    0.000000    1.485000
   347  Cl    c     6.323984   16.167302   -2.367572    0.000000    1.485000
   348  Cl    c    -6.232277   -1.678890    3.782790    0.000000    1.485000
   349  Cl    c    -6.230878    1.929928   -1.618159    0.000000    1.485000
   350  Cl    c    -3.403783   -3.920924   -1.620748    0.000000    1.485000
   351  Cl    c    18.083394    6.479634    9.258515    0.000000    1.485000
   352  Cl    c    15.256943   12.331161    9.260691    0.000000    1.485000
   353  Cl    c    18.085321   10.090268    3.857259    0.000000    1.485000
   354  Sc    c     3.775022   -9.004720    1.801713    0.000000    3.000000
   355  Cl    c    12.765233   15.673797    1.663892    0.000000    1.485000
   356  Cl    c    -7.286283    1.424968    2.397140    0.000000    1.485000
   357  Cl    c    -4.459842   -4.426353    2.397517    0.000000    1.485000
   358  Cl    c    19.128434    6.585586    5.863457    0.000000    1.485000
   359  Cl    c    16.300621    8.825502   11.267382    0.000000    1.485000
   360  Cl    c    12.693528   -5.609588   10.437609    0.000000    1.485000
   361  Cl    c     1.299961    5.185274   16.646724    0.000000    1.485000
   362  Cl    c    10.529101   -8.018014    7.820476    0.000000    1.485000
   363  Cl    c    -0.783502   15.406296    7.834211    0.000000    1.485000
   364  Cl    c    11.980724    8.071307   -7.774991    0.000000    1.485000
   365  Cl    c    12.628991   -3.789025   -4.981215    0.000000    1.485000
   366  Cl    c    -0.454223    2.463826   15.833877    0.000000    1.485000
   367  Cl    c    -3.269387   11.931706   10.428047    0.000000    1.485000
   368  Cl    c     7.305508   -8.642993    8.421618    0.000000    1.485000
   369  Cl    c    10.142902   -7.263431   -2.387319    0.000000    1.485000
   370  Cl    c     2.437292   14.286703   12.449545    0.000000    1.485000
   371  Sc    c     0.951804    4.073389   -9.005666    0.000000    3.000000
   372  Cl    c    17.362631    0.263626   10.452935    0.000000    1.485000
   373  Cl    c     7.696614   -5.768243   13.240384    0.000000    1.485000
   374  Sc    c    14.953468   14.461798    1.855263    0.000000    3.000000
   375  Cl    c     4.138724   -0.680215   16.645748    0.000000    1.485000
   376  Cl    c    -0.787634   11.789806   13.233146    0.000000    1.485000
   377  Cl    c    16.646714   10.326761   -2.351924    0.000000    1.485000
   378  Cl    c    12.619619   -7.398412    0.422511    0.000000    1.485000
   379  Cl    c     9.934501   14.303708   12.466543    0.000000    1.485000
   380  Sc    c    14.065457    6.811898   -7.170594    0.000000    3.000000
   381  Sc    c    -6.582593    7.647692    9.015648    0.000000    3.000000
   382  Sc    c     4.727169   -8.546235   -1.796957    0.000000    3.000000
   383  Cl    c    19.467957    0.866843    3.047249    0.000000    1.485000
   384  Sc    c    12.121609   13.090745   12.664310    0.000000    3.000000
   385  Cl    c    11.710425    8.353885   15.856594    0.000000    1.485000
   386  Sc    c    18.726559    1.845852    9.061312    0.000000    3.000000
   387  Sc    c    13.072328    9.940424   14.467878    0.000000    3.000000
   388  Sc    c     3.745076   12.647680   -7.193406    0.000000    3.000000
   389  Sc    c     5.617731    9.950037   -8.995087    0.000000    3.000000
   390  Cl    c     5.264605    4.824419   17.850256    0.000000    1.485000
   391  Sc    c    -4.709762    1.329598   12.616889    0.000000    3.000000
   392  Sc    c    16.893573   -2.652271   -1.765917    0.000000    3.000000
   393  Cl    c    -6.892902    9.776778    1.609305    0.000000    1.485000
   394  Cl    c     0.216759    8.664150   -8.388828    0.000000    1.485000
   395  Cl    c    -2.227701   15.670728    1.615839    0.000000    1.485000
   396  Cl    c     5.866098   -3.032917   -8.386528    0.000000    1.485000
   397  Cl    c     9.102288   -0.541213   -9.213101    0.000000    1.485000
   398  Cl    c     5.987879   18.260216    5.848822    0.000000    1.485000
   399  Cl    c    11.639716   13.787378   -4.959147    0.000000    1.485000
   400  Sc    c    13.104653   -4.486706   12.645020    0.000000    3.000000
   401  Sc    c     7.447217    3.606004   18.052101    0.000000    3.000000
   402  Sc    c     3.780550   -1.782577   -9.006964    0.000000    3.000000
   403  Cl    c    -8.006414    4.264952    0.396195    0.000000    1.485000
   404  Sc    c    -6.583054   11.258679    3.614509    0.000000    3.000000
   405  Cl    c    -5.176601    2.024952   -5.005132    0.000000    1.485000
   406  Sc    c    -1.926511    9.909988   14.440246    0.000000    3.000000
   407  Cl    c    19.863897    7.348672    2.460077    0.000000    1.485000
   408  Sc    c     4.730841   -4.931772   -7.203648    0.000000    3.000000
   409  Sc    c    12.124032   16.703051    7.260727    0.000000    3.000000
   410  Sc    c    11.272306   -8.995083    1.812040    0.000000    3.000000
   411  Cl    c    17.036551   13.199081    2.459645    0.000000    1.485000
   412  Cl    c    -2.285504   -5.650247   10.407639    0.000000    1.485000
   413  Cl    c     2.646947   -3.667001   -7.801842    0.000000    1.485000
   414  Cl    c    15.534847   -0.625977   -5.776816    0.000000    1.485000
   415  Cl    c     3.494267   18.401657    3.036783    0.000000    1.485000
   416  Cl    c     2.441207   17.899119    7.046284    0.000000    1.485000
   417  Cl    c    -8.009566    0.655930    5.797254    0.000000    1.485000
   418  Cl    c    -2.353852   -3.824129   -5.007832    0.000000    1.485000
   419  Cl    c    19.858939    3.735131    7.860696    0.000000    1.485000
   420  Cl    c    -5.442402   13.141709    2.414710    0.000000    1.485000
   421  Cl    c     1.595721   -0.563865   -9.205768    0.000000    1.485000
   422  Cl    c     5.860762  -10.258237    2.408603    0.000000    1.485000
   423  Cl    c     5.974773   11.045994   16.654025    0.000000    1.485000
   424  Cl    c    17.289730    2.087377   -4.962384    0.000000    1.485000
   425  Cl    c    14.207293   15.439154    7.862552    0.000000    1.485000
   426  Sc    c    -5.592580   -2.708964   -1.812248    0.000000    3.000000
   427  Sc    c    15.897132    4.086936   14.466624    0.000000    3.000000
   428  Sc    c    -6.546194   -3.170613    1.787231    0.000000    3.000000
   429  Cl    c    -5.838785   10.279359   -2.397725    0.000000    1.485000
   430  Sc    c    -1.886132   -4.522437   12.614753    0.000000    3.000000
   431  Cl    c     2.382152   -3.403778   15.838418    0.000000    1.485000
   432  Cl    c     3.373574   -6.519675   -5.811286    0.000000    1.485000
   433  Cl    c     4.472932   -6.398752   13.844650    0.000000    1.485000
   434  Cl    c    -3.259813   15.538040    5.023466    0.000000    1.485000
   435  Cl    c    10.144629   -3.646086   -7.784384    0.000000    1.485000
   436  Cl    c     9.935171   17.912603    7.066692    0.000000    1.485000
   437  Cl    c    -5.186208   -5.194655    5.795233    0.000000    1.485000
   438  Cl    c    -2.356592   -7.433509    0.393015    0.000000    1.485000
   439  Cl    c    17.029798    5.974854   13.263845    0.000000    1.485000
   440  Cl    c    14.204400   11.827421   13.265107    0.000000    1.485000
   441  Cl    c    -6.168007   12.375462    5.820037    0.000000    1.485000
   442  Cl    c     9.867041   -3.369242   15.838720    0.000000    1.485000
   443  Cl    c    18.024870   -0.758596   -2.958443    0.000000    1.485000
   444  Cl    c     2.316415    5.656609  -10.390325    0.000000    1.485000
   445  Cl    c    14.809962    2.219596   -7.769212    0.000000    1.485000
   446  Cl    c     9.544119   16.791187   -2.958734    0.000000    1.485000
   447  Cl    c    -1.512561   14.646898   11.250060    0.000000    1.485000
   448  Sc    c    18.734856    9.071330   -1.745550    0.000000    3.000000
   449  Cl    c    13.367928   -6.642934   -2.977779    0.000000    1.485000
   450  Cl    c     9.800668    5.684703  -10.379428    0.000000    1.485000
   451  Sc    c    13.078446   17.164611    3.660880    0.000000    3.000000
   452  Cl    c     2.055142   16.770693   -2.980994    0.000000    1.485000
   453  Cl    c    -5.449569    5.920947   13.214334    0.000000    1.485000
   454  Cl    c     0.200768   -5.778848   13.213822    0.000000    1.485000
   455  Cl    c    11.623856   -0.654951   16.647706    0.000000    1.485000
   456  Cl    c    17.282774   -5.136962    5.842879    0.000000    1.485000
   457  Sc    c    11.243540   12.664160   -7.168705    0.000000    3.000000
   458  Cl    c    -7.279323    5.037281   -3.001745    0.000000    1.485000
   459  Cl    c    -6.171698    8.767669   11.219982    0.000000    1.485000
   460  Sc    c    20.607168    2.756150    1.852740    0.000000    3.000000
   461  Cl    c    -1.628554   -6.662143   -3.003843    0.000000    1.485000
   462  Cl    c    14.532156    2.503681   15.855291    0.000000    1.485000
   463  Cl    c    -1.231801    5.289080   -9.196193    0.000000    1.485000
   464  Cl    c    18.021730   -4.377202    2.440740    0.000000    1.485000
   465  Cl    c    19.132058   10.197575    0.460448    0.000000    1.485000
   466  Cl    c    19.470377    4.476896   -2.353022    0.000000    1.485000
   467  Cl    c    13.475978   14.676922   11.269160    0.000000    1.485000
   468  Cl    c     5.138165   -0.192782  -10.392192    0.000000    1.485000
   469  Cl    c     6.714211   19.024530    2.443014    0.000000    1.485000
   470  Cl    c    -7.929813    9.665965    5.006817    0.000000    1.485000
   471  Cl    c    -0.188825   -8.652505    8.407265    0.000000    1.485000
   472  Cl    c     3.431568   11.160008   -9.187440    0.000000    1.485000
   473  Cl    c    -9.055790    4.171559    3.784880    0.000000    1.485000
   474  Cl    c    -4.395197    2.820359   14.609092    0.000000    1.485000
   475  Sc    c    -6.544357    0.441025   -3.616363    0.000000    3.000000
   476  Cl    c    -3.404379   -7.528017    3.781490    0.000000    1.485000
   477  Cl    c    -1.571925   -3.031100   14.607596    0.000000    1.485000
   478  Cl    c    -3.398235   -0.309618   -7.018894    0.000000    1.485000
   479  Cl    c    -4.389697   13.644569   -1.594865    0.000000    1.485000
   480  Cl    c    15.254623    8.720931   14.662474    0.000000    1.485000
   481  Cl    c    20.911871    4.238168    3.855669    0.000000    1.485000
   482  Cl    c    13.412979   -2.996025   14.639285    0.000000    1.485000
   483  Cl    c    16.242026   -5.242905    9.237467    0.000000    1.485000
   484  Cl    c    -1.560940   11.404147   -6.996257    0.000000    1.485000
   485  Cl    c     4.930922   14.548522   14.645994    0.000000    1.485000
   486  Cl    c    15.258709   15.940671    3.858386    0.000000    1.485000
   487  Cl    c     4.934143   18.157585    9.243590    0.000000    1.485000
   488  Cl    c    18.417515    7.580815   -3.740222    0.000000    1.485000
   489  Cl    c     6.914416   -9.752778   -1.602257    0.000000    1.485000
   490  Cl    c     6.915470   -6.143008   -7.002460    0.000000    1.485000
   491  Cl    c    16.243151    5.589527   -6.964181    0.000000    1.485000
   492  Cl    c    13.421647   11.439976   -6.964813    0.000000    1.485000
   493  Sc    c    17.772964    1.384569   12.661051    0.000000    3.000000
   494  Sc    c    -8.422858   -0.467443    3.592296    0.000000    3.000000
   495  Cl    c    20.191884    1.635802   -0.353075    0.000000    1.485000
   496  Sc    c    -1.916513   17.137833    3.632499    0.000000    3.000000
   497  Cl    c     8.091326   -1.023487   17.846436    0.000000    1.485000
   498  Sc    c    11.282985   -1.768230   -8.996269    0.000000    3.000000
   499  Cl    c    10.990723   18.416869    3.050191    0.000000    1.485000
   500  Cl    c    -3.002620    8.037877   -7.794393    0.000000    1.485000
   501  Cl    c    -4.064686   -3.298724   12.411667    0.000000    1.485000
   502  Cl    c     3.367633  -10.125947   -0.402712    0.000000    1.485000
   503  Sc    c    16.889366   -6.268840    3.639908    0.000000    3.000000
   504  Cl    c    -7.285739   -2.185492    7.798463    0.000000    1.485000
   505  Cl    c    -4.007827   14.784291    8.426222    0.000000    1.485000
   506  Sc    c    -4.702683   12.168966   -3.599869    0.000000    3.000000
   507  Sc    c    15.935558   -6.730172    7.238210    0.000000    3.000000
   508  Cl    c    19.123819    2.973629   11.264727    0.000000    1.485000
   509  Cl    c    -1.168452   16.149971   -2.374419    0.000000    1.485000
   510  Sc    c     4.620814    9.459296   18.053994    0.000000    3.000000
   511  Cl    c    10.871998   -6.504597   -5.800999    0.000000    1.485000
   512  Cl    c    13.753764    5.321895   -9.164154    0.000000    1.485000
   513  Cl    c     8.052228    2.959329  -11.191723    0.000000    1.485000
   514  Sc    c    -2.872904   13.055815   12.638188    0.000000    3.000000
   515  Sc    c    12.225933   -8.531386   -1.781717    0.000000    3.000000
   516  Sc    c    -7.536478   10.795864    7.213099    0.000000    3.000000
   517  Cl    c     9.530612    2.344882   18.646544    0.000000    1.485000
   518  Cl    c     2.297320   -8.784209   11.211796    0.000000    1.485000
   519  Cl    c     6.704659    8.195550   18.647769    0.000000    1.485000
   520  Cl    c     5.124492  -11.021909    5.808934    0.000000    1.485000
   521  Cl    c    15.591282   13.430807   -3.737970    0.000000    1.485000
   522  Sc    c    -0.049462    3.588421   18.043374    0.000000    3.000000
   523  Cl    c    16.634209   -0.506706   13.851038    0.000000    1.485000
   524  Sc    c     9.392810   -9.904448    9.030340    0.000000    3.000000
   525  Cl    c     2.037643    2.327777   18.630684    0.000000    1.485000
   526  Cl    c     9.787577   -8.765002   11.227643    0.000000    1.485000
   527  Cl    c     8.888045   17.814601   10.457263    0.000000    1.485000
   528  Sc    c    -8.419636    3.145402   -1.811529    0.000000    3.000000
   529  Cl    c    -7.928270    6.054493   10.405993    0.000000    1.485000
   530  Cl    c    15.523289   -7.848668    5.031103    0.000000    1.485000
   531  Cl    c     2.641811  -10.885594    3.004867    0.000000    1.485000
   532  Cl    c     9.157099   13.921281   -7.767663    0.000000    1.485000
   533  Sc    c    -9.373754    2.683256    1.788230    0.000000    3.000000
   534  Cl    c    -6.886596    2.552779   12.410920    0.000000    1.485000
   535  Sc    c    -3.717253   -5.411956   -3.619025    0.000000    3.000000
   536  Cl    c    16.578866   -4.134975   -3.763167    0.000000    1.485000
   537  Sc    c    -3.762213   -1.821459   14.419413    0.000000    3.000000
   538  Sc    c     1.895483   -9.918753    9.012110    0.000000    3.000000
   539  Cl    c    10.930025   11.173682   -9.162340    0.000000    1.485000
   540  Sc    c    -5.596345   -6.321684    3.591031    0.000000    3.000000
   541  Cl    c    20.187232   -1.974700    5.048444    0.000000    1.485000
   542  Cl    c     6.311318    1.713904   19.240373    0.000000    1.485000
   543  Sc    c    -2.868068   16.672492    7.228517    0.000000    3.000000
   544  Sc    c    12.230399   -4.914153   -7.190962    0.000000    3.000000
   545  Cl    c    12.755255    4.842973   17.866236    0.000000    1.485000
   546  Cl    c    13.820332   16.178107   -2.351268    0.000000    1.485000
   547  Cl    c     4.234201   19.163911   -0.362419    0.000000    1.485000
   548  Cl    c    -3.274522    8.315306   15.825303    0.000000    1.485000
   549  Cl    c    10.132504  -10.872345    3.015174    0.000000    1.485000
   550  Sc    c    15.908487   14.924479   -1.744572    0.000000    3.000000
   551  Cl    c    -4.009377   11.161544   13.824547    0.000000    1.485000
   552  Cl    c    10.859222  -10.111548   -0.392281    0.000000    1.485000
   553  Cl    c     1.661139   13.904612   -7.784827    0.000000    1.485000
   554  Cl    c     5.219656    8.815892  -11.190460    0.000000    1.485000
   555  Cl    c    11.967070   -6.374132   13.837217    0.000000    1.485000
   556  Sc    c    13.119606    9.963040   -8.972800    0.000000    3.000000
   557  Sc    c     7.462643   18.060792   -3.565562    0.000000    3.000000
   558  Cl    c     1.402092   17.792928   10.441475    0.000000    1.485000
   559  Cl    c     2.439282   10.676802   17.850635    0.000000    1.485000
   560  Cl    c     0.601164   -1.040640   17.829852    0.000000    1.485000
   561  Cl    c     6.254767   -9.130631   12.425980    0.000000    1.485000
   562  Sc    c    16.898233    0.958928   -7.171482    0.000000    3.000000
   563  Sc    c    20.603574   -0.856572    7.256138    0.000000    3.000000
   564  Sc    c     2.778718   -2.266203   18.042114    0.000000    3.000000
   565  Sc    c     6.562733   -7.662460   14.437511    0.000000    3.000000
   566  Cl    c    19.463904   -2.745695    8.449065    0.000000    1.485000
   567  Cl    c     8.883667   14.203848   15.858852    0.000000    1.485000
   568  Cl    c    -3.329495   13.744344   -4.986304    0.000000    1.485000
   569  Cl    c     3.485701    7.564175   19.239947    0.000000    1.485000
   570  Cl    c    15.201009    8.702001   -8.359467    0.000000    1.485000
   571  Cl    c     9.929180   10.693440   17.868065    0.000000    1.485000
   572  Cl    c    -7.674723   -1.445827   -2.413666    0.000000    1.485000
   573  Cl    c    -6.944581   -4.295260   -0.417585    0.000000    1.485000
   574  Cl    c     7.061623   16.925952   -5.765180    0.000000    1.485000
   575  Cl    c    -8.666021    8.901812    8.406177    0.000000    1.485000
   576  Cl    s     4.025698    3.896964    2.303260    0.000000   -2.485000
   577  Cl    s     4.041905    6.276748    5.836560    0.000000   -2.485000
   578  Cl    s     7.457044    1.391602    2.571498    0.000000   -2.485000
   579  Cl    s     4.411345    7.237390    2.553023    0.000000   -2.485000
   580  Cl    s     6.751448    3.887077    0.321411    0.000000   -2.485000
   581  Cl    s     2.294488    4.100535    5.144577    0.000000   -2.485000
   582  Cl    s     4.687908    0.673758    2.861457    0.000000   -2.485000
   583  Cl    s     4.600918    3.580224    7.862916    0.000000   -2.485000
   584  Cl    s     6.764312    0.482198    5.798842    0.000000   -2.485000
   585  Cl    s     9.943871    4.040218    5.075029    0.000000   -2.485000
   586  Cl    s     9.334625    6.713971    2.978681    0.000000   -2.485000
   587  Cl    s     8.239985    6.196506    7.184130    0.000000   -2.485000
   588  Cl    s     1.559139    6.819179    2.888374    0.000000   -2.485000
   589  Cl    s     5.203031    1.608767   -0.592250    0.000000   -2.485000
   590  Cl    s    11.063109    3.951940    1.791856    0.000000   -2.485000
   591  Cl    s     3.547709    0.288845    7.207797    0.000000   -2.485000
   592  Cl    s     9.339585    3.118014    8.376984    0.000000   -2.485000
   593  Cl    s     7.138761    9.871816    5.083456    0.000000   -2.485000
   594  Cl    s     1.811623    3.061363    8.464427    0.000000   -2.485000
   595  Cl    s     5.300691   -1.929552    5.125737    0.000000   -2.485000
   596  Cl    s    11.511419    6.379126    5.787607    0.000000   -2.485000
   597  Cl    s     2.438323    7.643025   -0.368796    0.000000   -2.485000
   598  Cl    s     4.660422    4.461570   -2.487263    0.000000   -2.485000
   599  Cl    s     5.724822    0.529295    9.115440    0.000000   -2.485000
   600  Cl    s     8.227658    9.793162    1.790836    0.000000   -2.485000
   601  Cl    s     2.931508    6.427294    9.159772    0.000000   -2.485000
   602  Cl    s     8.623947   -1.718922    3.719285    0.000000   -2.485000
   603  Cl    s     0.805376    6.235723    7.197445    0.000000   -2.485000
   604  Cl    s     6.481692   -1.886356    1.772576    0.000000   -2.485000
   605  Cl    s     2.826696    9.998067    3.651523    0.000000   -2.485000
   606  Cl    s     8.495778    1.887727   -1.763977    0.000000   -2.485000
   607  Cl    s     5.708421    7.766825   -1.737643    0.000000   -2.485000
   608  Cl    s     6.511931    8.959502    8.378760    0.000000   -2.485000
   609  Cl    s    -0.020093    1.404852    2.448139    0.000000   -2.485000
   610  Cl    s     9.967264    7.635258   -0.319391    0.000000   -2.485000
   611  Cl    s     4.000825    9.982828    0.334975    0.000000   -2.485000
   612  Cl    s     7.461597    5.033682   -2.974219    0.000000   -2.485000
   613  Cl    s     7.146029    6.268147   10.483078    0.000000   -2.485000
   614  Cl    s    12.140364    7.281070    2.475326    0.000000   -2.485000
   615  Cl    s    12.173270    0.879639    2.987484    0.000000   -2.485000
   616  Cl    s    11.070650    0.351140    7.180699    0.000000   -2.485000
   617  Cl    s    10.416213    6.440383    9.093852    0.000000   -2.485000
   618  Cl    s    13.241936    4.193255    3.694384    0.000000   -2.485000
   619  Cl    s    10.405399   10.037615    3.693078    0.000000   -2.485000
   620  Cl    s    -0.629274    4.079778    0.362217    0.000000   -2.485000
   621  Cl    s    12.143478    3.665155    7.868976    0.000000   -2.485000
   622  Cl    s     9.315059    9.517478    7.875183    0.000000   -2.485000
   623  Cl    s     1.095627   -1.666325    3.643824    0.000000   -2.485000
   624  Cl    s    -1.734309    4.164473    3.639011    0.000000   -2.485000
   625  Cl    s     1.079174    1.919589   -1.742090    0.000000   -2.485000
   626  Cl    s     7.454659   -2.224473    7.877312    0.000000   -2.485000
   627  Cl    s     3.991127    2.730152   11.191759    0.000000   -2.485000
   628  Cl    s    -0.641791    0.494434    5.750761    0.000000   -2.485000
[...]
    924 y         -5.315277     -5.312890     0.002388    Cartesian   -0.04
    924 z          5.791533      5.789844    -0.001689    Cartesian   -0.03
    925 x         15.097641     15.097123    -0.000518    Cartesian   -0.00
    925 y         15.927182     15.923643    -0.003539    Cartesian   -0.02
    925 z          3.714155      3.715786     0.001631    Cartesian    0.04
    926 x         -2.472937     -2.469408     0.003529    Cartesian   -0.14
    926 y         -7.608815     -7.607248     0.001567    Cartesian   -0.02
    926 z          0.339892      0.340363     0.000471    Cartesian    0.14
    927 x         -7.820735     -7.816052     0.004683    Cartesian   -0.06
    927 y          9.845578      9.841963    -0.003615    Cartesian   -0.04
    927 z          5.058065      5.058679     0.000614    Cartesian    0.01
    928 x         -6.291469     -6.285270     0.006199    Cartesian   -0.10
    928 y          8.594580      8.592993    -0.001587    Cartesian   -0.02
    928 z         11.167398     11.165683    -0.001715    Cartesian   -0.02
    929 x          4.771771      4.769444    -0.002327    Cartesian   -0.05
    929 y         14.538199     14.530239    -0.007960    Cartesian   -0.05
    929 z         14.505704     14.502374    -0.003330    Cartesian   -0.02
    930 x         15.016621     15.016476    -0.000145    Cartesian   -0.00
    930 y          2.259972      2.260565     0.000593    Cartesian    0.03
    930 z         -7.811496     -7.807849     0.003647    Cartesian   -0.05
    931 x          3.486952      3.482832    -0.004119    Cartesian   -0.12
    931 y         -9.951970     -9.949476     0.002494    Cartesian   -0.03
    931 z         -0.350786     -0.349616     0.001169    Cartesian   -0.33
    932 x          4.775333      4.773226    -0.002107    Cartesian   -0.04
    932 y         18.150026     18.139456    -0.010570    Cartesian   -0.06
    932 z          9.102797      9.100096    -0.002702    Cartesian   -0.03
    933 x         -0.006142     -0.006738    -0.000596    Cartesian    9.70
    933 y         -5.822563     -5.818592     0.003970    Cartesian   -0.07
    933 z         13.255177     13.251583    -0.003594    Cartesian   -0.03
    934 x         -1.735566     -1.733442     0.002125    Cartesian   -0.12
    934 y         -3.054179     -3.049138     0.005041    Cartesian   -0.17
    934 z         14.469746     14.465944    -0.003802    Cartesian   -0.03
    935 x         14.650291     14.645996    -0.004295    Cartesian   -0.03
    935 y          2.674945      2.677929     0.002984    Cartesian    0.11
    935 z         15.911126     15.907528    -0.003599    Cartesian   -0.02
    936 x         -4.561598     -4.556179     0.005419    Cartesian   -0.12
    936 y          2.798165      2.802004     0.003840    Cartesian    0.14
    936 z         14.471232     14.466979    -0.004253    Cartesian   -0.03
    937 x         16.090141     16.081145    -0.008997    Cartesian   -0.06
    937 y          5.576131      5.573853    -0.002278    Cartesian   -0.04
    937 z         -7.111865     -7.106108     0.005757    Cartesian   -0.08
    938 x         -1.836112     -1.835312     0.000800    Cartesian   -0.04
    938 y         -6.709444     -6.703287     0.006156    Cartesian   -0.09
    938 z         -2.972264     -2.966322     0.005942    Cartesian   -0.20
    939 x         -5.658205     -5.656332     0.001873    Cartesian   -0.03
    939 y          5.882125      5.880564    -0.001561    Cartesian   -0.03
    939 z         13.258149     13.252696    -0.005453    Cartesian   -0.04
    940 x          5.026901      5.024541    -0.002360    Cartesian   -0.05
    940 y         -0.367488     -0.367464     0.000024    Cartesian   -0.01
    940 z        -10.450171    -10.443165     0.007005    Cartesian   -0.07
    941 x         13.264110     13.260009    -0.004101    Cartesian   -0.03
    941 y         11.428475     11.424002    -0.004473    Cartesian   -0.04
    941 z         -7.110379     -7.106947     0.003432    Cartesian   -0.05
    942 x         -7.488174     -7.485818     0.002357    Cartesian   -0.03
    942 y          4.995244      4.996220     0.000976    Cartesian    0.02
    942 z         -2.969292     -2.963985     0.005307    Cartesian   -0.18
    943 x          6.753211      6.752083    -0.001128    Cartesian   -0.02
    943 y         -9.775730     -9.768848     0.006883    Cartesian   -0.07
    943 z         -1.743431     -1.742679     0.000752    Cartesian   -0.04
    944 x         -2.794843     -2.792997     0.001846    Cartesian   -0.07
    944 y          8.076969      8.076509    -0.000460    Cartesian   -0.01
    944 z         -7.841510     -7.832230     0.009280    Cartesian   -0.12
    945 x         18.583111     18.578360    -0.004751    Cartesian   -0.03
    945 y          7.602115      7.598359    -0.003756    Cartesian   -0.05
    945 z         -3.604417     -3.599397     0.005019    Cartesian   -0.14
    946 x         -3.790904     -3.797224    -0.006320    Cartesian    0.17
    946 y         14.816194     14.823779     0.007586    Cartesian    0.05
    946 z          8.387417      8.389369     0.001952    Cartesian    0.02
    947 x         10.983229     10.986604     0.003375    Cartesian    0.03
    947 y         -6.322470     -6.328541    -0.006071    Cartesian    0.10
    947 z         -5.737942     -5.745003    -0.007061    Cartesian    0.12
    948 x         -3.569098     -3.565281     0.003817    Cartesian   -0.11
    948 y         -7.552887     -7.545657     0.007229    Cartesian   -0.10
    948 z          3.645212      3.640839    -0.004373    Cartesian   -0.12
    949 x         19.012711     19.010132    -0.002578    Cartesian   -0.01
    949 y          2.795257      2.797766     0.002510    Cartesian    0.09
    949 z         11.213161     11.211344    -0.001818    Cartesian   -0.02
    950 x         19.679744     19.676928    -0.002816    Cartesian   -0.01
    950 y          4.518163      4.517706    -0.000456    Cartesian   -0.01
    950 z         -2.391354     -2.391254     0.000100    Cartesian   -0.00
    951 x         -3.905720     -3.903007     0.002713    Cartesian   -0.07
    951 y         -3.286386     -3.282659     0.003727    Cartesian   -0.11
    951 z         12.557053     12.553637    -0.003415    Cartesian   -0.03
    952 x          6.756772      6.753673    -0.003099    Cartesian   -0.05
    952 y         -6.163904     -6.158743     0.005161    Cartesian   -0.08
    952 z         -7.146337     -7.142875     0.003462    Cartesian   -0.05
    953 x         -9.221160     -9.216156     0.005005    Cartesian   -0.05
    953 y          4.151801      4.154193     0.002392    Cartesian    0.06
    953 z          3.648184      3.644230    -0.003954    Cartesian   -0.11
    954 x         -4.550914     -4.549493     0.001421    Cartesian   -0.03
    954 y         13.633645     13.627270    -0.006375    Cartesian   -0.05
    954 z         -1.737487     -1.736635     0.000851    Cartesian   -0.05
    955 x         -0.957750     -0.958099    -0.000349    Cartesian    0.04
    955 y         16.187503     16.188431     0.000928    Cartesian    0.01
    955 z         -2.419882     -2.412441     0.007440    Cartesian   -0.31
    956 x         20.313037     20.305795    -0.007242    Cartesian   -0.04
    956 y          1.805738      1.809844     0.004107    Cartesian    0.23
    956 z         -0.300564     -0.300190     0.000375    Cartesian   -0.12
    957 x          8.160759      8.165388     0.004629    Cartesian    0.06
    957 y          3.141700      3.136074    -0.005626    Cartesian   -0.18
    957 z        -11.139362    -11.135684     0.003678    Cartesian   -0.03
    958 x         -1.721322     -1.720530     0.000792    Cartesian   -0.05
    958 y         11.393128     11.386996    -0.006131    Cartesian   -0.05
    958 z         -7.141879     -7.137811     0.004068    Cartesian   -0.06
    959 x         13.919988     13.914401    -0.005587    Cartesian   -0.04
    959 y          5.343924      5.340141    -0.003784    Cartesian   -0.07
    959 z         -9.024559     -9.021988     0.002571    Cartesian   -0.03
    960 x         -3.561975     -3.558341     0.003635    Cartesian   -0.10
    960 y         -0.329233     -0.326290     0.002943    Cartesian   -0.89
    960 z         -7.160601     -7.159163     0.001437    Cartesian   -0.02
    961 x         11.198089     11.197783    -0.000306    Cartesian   -0.00
    961 y         18.463367     18.457582    -0.005786    Cartesian   -0.03
    961 z          3.016010      3.012690    -0.003320    Cartesian   -0.11
    962 x          8.250119      8.251817     0.001698    Cartesian    0.02
    962 y         -1.010521     -1.007154     0.003367    Cartesian   -0.33
    962 z         17.992944     17.987600    -0.005345    Cartesian   -0.03
    963 x          9.323666      9.321667    -0.001999    Cartesian   -0.02
    963 y          2.305645      2.305279    -0.000366    Cartesian   -0.02
    963 z         18.692555     18.684689    -0.007865    Cartesian   -0.04
    964 x          2.850098      2.850083    -0.000015    Cartesian   -0.00
    964 y        -10.851372    -10.842608     0.008763    Cartesian   -0.08
    964 z          2.961330      2.964653     0.003323    Cartesian    0.11
    965 x         -7.824296     -7.814310     0.009986    Cartesian   -0.13
    965 y          6.233751      6.230873    -0.002878    Cartesian   -0.05
    965 z         10.460971     10.457162    -0.003809    Cartesian   -0.04
    966 x          6.497635      6.496125    -0.001510    Cartesian   -0.02
    966 y          8.157989      8.155306    -0.002683    Cartesian   -0.03
    966 z         18.694041     18.686356    -0.007685    Cartesian   -0.04
    967 x         -7.495297     -7.492201     0.003096    Cartesian   -0.04
    967 y         -2.228410     -2.225838     0.002572    Cartesian   -0.12
    967 z          7.836521      7.836297    -0.000224    Cartesian   -0.00
    968 x         15.642791     15.637745    -0.005046    Cartesian   -0.03
    968 y         -7.676106     -7.673659     0.002447    Cartesian   -0.03
    968 z          5.085106      5.083940    -0.001166    Cartesian   -0.02
    969 x         15.757080     15.752588    -0.004492    Cartesian   -0.03
    969 y         13.454459     13.448116    -0.006343    Cartesian   -0.05
    969 z         -3.602931     -3.597475     0.005455    Cartesian   -0.15
    970 x         -6.731752     -6.724303     0.007448    Cartesian   -0.11
    970 y          2.565958      2.568337     0.002379    Cartesian    0.09
    970 z         12.558539     12.552730    -0.005808    Cartesian   -0.05
    971 x          1.830950      1.829373    -0.001577    Cartesian   -0.09
    971 y          2.287972      2.288055     0.000083    Cartesian    0.00
    971 z         18.676805     18.669219    -0.007586    Cartesian   -0.04
    972 x          2.186625      2.184613    -0.002012    Cartesian   -0.09
    972 y         -8.962451     -8.958881     0.003570    Cartesian   -0.04
    972 z         11.162940     11.158322    -0.004618    Cartesian   -0.04
    973 x          9.679341      9.674756    -0.004585    Cartesian   -0.05
    973 y         -8.944778     -8.940570     0.004208    Cartesian   -0.05
    973 z         11.178690     11.173807    -0.004883    Cartesian   -0.04
    974 x         16.843029     16.841212    -0.001818    Cartesian   -0.01
    974 y         -0.464973     -0.465040    -0.000066    Cartesian    0.01
    974 z         13.818850     13.812958    -0.005892    Cartesian   -0.04
    975 x         11.093956     11.091399    -0.002557    Cartesian   -0.02
    975 y         11.196268     11.191528    -0.004740    Cartesian   -0.04
    975 z         -9.023073     -9.020511     0.002562    Cartesian   -0.03
    976 x          5.016218      5.012159    -0.004059    Cartesian   -0.08
    976 y        -11.202968    -11.196290     0.006678    Cartesian   -0.06
    976 z          5.758548      5.755684    -0.002863    Cartesian   -0.05
    977 x         16.742458     16.739072    -0.003386    Cartesian   -0.02
    977 y         -4.120246     -4.116716     0.003530    Cartesian   -0.09
    977 z         -3.623139     -3.620793     0.002346    Cartesian   -0.06
    978 x         -3.794465     -3.799280    -0.004815    Cartesian    0.13
    978 y         11.204367     11.202759    -0.001608    Cartesian   -0.01
    978 z         13.790323     13.787078    -0.003245    Cartesian   -0.02
    979 x          6.520721      6.519295    -0.001426    Cartesian   -0.02
    979 y          1.757870      1.756170    -0.001700    Cartesian   -0.10
    979 z         19.207493     19.201760    -0.005733    Cartesian   -0.03
    980 x          9.364558      9.364561     0.000003    Cartesian    0.00
    980 y         13.964660     13.960963    -0.003697    Cartesian   -0.03
    980 z         -7.808524     -7.805425     0.003099    Cartesian   -0.04
    981 x         10.979668     10.974522    -0.005146    Cartesian   -0.05
    981 y         -9.934297     -9.935484    -0.001188    Cartesian    0.01
    981 z         -0.335036     -0.338014    -0.002978    Cartesian    0.89
    982 x          9.001789      9.000925    -0.000864    Cartesian   -0.01
    982 y         17.991459     17.988632    -0.002828    Cartesian   -0.02
    982 z         10.511192     10.509378    -0.001814    Cartesian   -0.02
    983 x         20.309476     20.301487    -0.007988    Cartesian   -0.04
    983 y         -1.806089     -1.800616     0.005472    Cartesian   -0.30
    983 z          5.102342      5.100855    -0.001487    Cartesian   -0.03
    984 x         -3.161172     -3.159992     0.001180    Cartesian   -0.04
    984 y          8.491942      8.491345    -0.000597    Cartesian   -0.01
    984 z         15.881113     15.875910    -0.005203    Cartesian   -0.03
    985 x         10.342814     10.340383    -0.002431    Cartesian   -0.02
    985 y        -10.833698    -10.829176     0.004522    Cartesian   -0.04
    985 z          2.977080      2.975354    -0.001726    Cartesian   -0.06
    986 x          1.871842      1.870957    -0.000885    Cartesian   -0.05
    986 y         13.946986     13.943342    -0.003645    Cartesian   -0.03
    986 z         -7.824274     -7.822138     0.002136    Cartesian   -0.03
    987 x          5.334727      5.333077    -0.001651    Cartesian   -0.03
    987 y          8.994044      8.991753    -0.002291    Cartesian   -0.03
    987 z        -11.137876    -11.134485     0.003391    Cartesian   -0.03
    988 x          4.342227      4.346457     0.004230    Cartesian    0.10
    988 y         19.345095     19.338253    -0.006843    Cartesian   -0.04
    988 z         -0.311856     -0.309293     0.002562    Cartesian   -0.82
    989 x         14.027682     14.027292    -0.000390    Cartesian   -0.00
    989 y         16.222850     16.218697    -0.004153    Cartesian   -0.03
    989 z         -2.388382     -2.389012    -0.000630    Cartesian    0.03
    990 x         -6.831796     -6.830204     0.001592    Cartesian   -0.02
    990 y         -4.117300     -4.118753    -0.001453    Cartesian    0.04
    990 z         -0.365049     -0.364617     0.000432    Cartesian   -0.12
    991 x         12.176345     12.174521    -0.001823    Cartesian   -0.01
    991 y         -6.334991     -6.331545     0.003446    Cartesian   -0.05
    991 z         13.801614     13.798117    -0.003498    Cartesian   -0.03
    992 x         -8.457589     -8.456131     0.001458    Cartesian   -0.02
    992 y          8.946176      8.943119    -0.003058    Cartesian   -0.03
    992 z          8.370181      8.368153    -0.002028    Cartesian   -0.02
    993 x         -7.465088     -7.465583    -0.000495    Cartesian    0.01
    993 y         -1.404875     -1.404641     0.000234    Cartesian   -0.02
    993 z         -2.455839     -2.452551     0.003288    Cartesian   -0.13
    994 x         14.993535     14.991626    -0.001908    Cartesian   -0.01
    994 y          8.660091      8.659663    -0.000428    Cartesian   -0.00
    994 z         -8.324948     -8.321018     0.003930    Cartesian   -0.05
    995 x         12.916804     12.915548    -0.001256    Cartesian   -0.01
    995 y          4.859496      4.859521     0.000025    Cartesian    0.00
    995 z         18.010180     18.006985    -0.003195    Cartesian   -0.02
    996 x          3.694690      3.693934    -0.000756    Cartesian   -0.02
    996 y          7.610214      7.606070    -0.004144    Cartesian   -0.05
    996 z         19.208979     19.201793    -0.007186    Cartesian   -0.04
    997 x          1.509073      1.514799     0.005726    Cartesian    0.38
    997 y         17.973786     17.967520    -0.006266    Cartesian   -0.03
    997 z         10.495443     10.493008    -0.002435    Cartesian   -0.02
    998 x          2.598056      2.600756     0.002700    Cartesian    0.10
    998 y         10.694166     10.692516    -0.001650    Cartesian   -0.02
    998 z         17.995917     17.991417    -0.004500    Cartesian   -0.03
    999 x          0.757403      0.762183     0.004780    Cartesian    0.63
    999 y         -1.028195     -1.024605     0.003590    Cartesian   -0.35
    999 z         17.977195     17.971858    -0.005337    Cartesian   -0.03
   1000 x          6.413027      6.415366     0.002339    Cartesian    0.04
   1000 y         -9.121056     -9.114035     0.007021    Cartesian   -0.08
   1000 z         12.571316     12.568351    -0.002965    Cartesian   -0.02
   1001 x         -3.454754     -3.444776     0.009978    Cartesian   -0.29
   1001 y         13.577716     13.569668    -0.008048    Cartesian   -0.06
   1001 z         -5.042806     -5.038394     0.004412    Cartesian   -0.09
   1002 x         19.672622     19.670769    -0.001853    Cartesian   -0.01
   1002 y         -2.705490     -2.704235     0.001256    Cartesian   -0.05
   1002 z          8.414458      8.410842    -0.003616    Cartesian   -0.04
   1003 x          8.998228      8.996865    -0.001363    Cartesian   -0.02
   1003 y         14.379633     14.378014    -0.001619    Cartesian   -0.01
   1003 z         15.914099     15.910456    -0.003643    Cartesian   -0.02
   1004 x          7.171819      7.174223     0.002404    Cartesian    0.03
   1004 y         17.104578     17.100602    -0.003976    Cartesian   -0.02
   1004 z         -5.716248     -5.711672     0.004576    Cartesian   -0.08
   1005 x         10.090772     10.089871    -0.000902    Cartesian   -0.01
   1005 y         10.711840     10.709664    -0.002175    Cartesian   -0.02
   1005 z         18.011666     18.008519    -0.003147    Cartesian   -0.02
--------------------------------------------------------------------------------


  Time to end of optimisation  =      336.7851 seconds


  Peak dynamic memory used =     149.67 MB 


  Timing analysis for GULP :

--------------------------------------------------------------------------------
  Task / Subroutine                                          Time (Seconds)
--------------------------------------------------------------------------------
  Calculation of reciprocal space energy and derivatives          0.0087
  Calculation of real space energy and derivatives                0.2230
  Calculation for region 1 energy and derivatives (2-b)         132.2613
  Calculation for region 2a energy                              140.5547
  Calculation for region 2b energy                                0.0267
  Calculation and manipulation of Hessian matrix                  0.0401
  Calculation of matrix inversion                                62.4391
--------------------------------------------------------------------------------
  Total CPU time                                                336.7852
--------------------------------------------------------------------------------


  Dump file written as ScCl3.grs



  **** GULP has completed with   2 warnings - beware! ****

  Job Finished at 18:49.25  7th February   2022                               

