********************************************************************************
*                       GENERAL UTILITY LATTICE PROGRAM                        *
*                                 Julian Gale                                  *
*                       Curtin Institute for Computation                       *
*                    School of Molecular and Life Sciences                     *
*                    Curtin University, Western Australia                      *
********************************************************************************
* Version = 5.2.0 * Last modified =   1st June 2020                            *
********************************************************************************
*  optimise     - perform optimisation run                                     *
*  conp         - constant pressure calculation                                *
*  property     - calculate properties for final geometry                      *
*  defect       - perform defect calculation after bulk run                    *
*  compare      - compare initial and final structures                         *
********************************************************************************

  Job Started  at 18:44.47  7th February   2022                               

  Number of CPUs =     1


  Total number of configurations input =      1

********************************************************************************
*  Input for Configuration =   1                                               *
********************************************************************************

  Formula = Sc2Cl6                                                      

  Number of irreducible atoms/shells =      14


  Total number atoms/shells =      14

  Dimensionality = 3               :  Bulk   



  Cartesian lattice vectors (Angstroms) :

        7.453000    0.000000    0.000000
        4.624520    5.844744    0.000000
        4.624520    2.237970    5.399307

  Cell parameters (Angstroms/Degrees):

  a =       7.4530    alpha =  51.6480
  b =       7.4530    beta  =  51.6480
  c =       7.4530    gamma =  51.6480

  Initial cell volume =         235.198534 Angs**3

  Temperature of configuration =   0.00     K 

  Pressure of configuration =         0.000 GPa 

  Fractional coordinates of asymmetric unit :

--------------------------------------------------------------------------------
   No.  Atomic       x           y          z         Charge      Occupancy
        Label      (Frac)      (Frac)     (Frac)        (e)         (Frac)  
--------------------------------------------------------------------------------
      1 Sc    c    0.333900    0.333900    0.333900     3.00000    1.000000    
      2 Sc    c    0.666100 *  0.666100 *  0.666100 *   3.00000    1.000000    
      3 Cl    c    0.073700 *  0.443900 *  0.705300 *   1.48500    1.000000    
      4 Cl    c    0.294700 *  0.926300 *  0.556100 *   1.48500    1.000000    
      5 Cl    c    0.443900 *  0.705300 *  0.073700 *   1.48500    1.000000    
      6 Cl    c    0.556100 *  0.294700 *  0.926300 *   1.48500    1.000000    
      7 Cl    c    0.705300 *  0.073700 *  0.443900 *   1.48500    1.000000    
      8 Cl    c    0.926300 *  0.556100 *  0.294700 *   1.48500    1.000000    
      9 Cl    s    0.073700 *  0.443900 *  0.705300 *  -2.48500    1.000000    
     10 Cl    s    0.294700 *  0.926300 *  0.556100 *  -2.48500    1.000000    
     11 Cl    s    0.443900 *  0.705300 *  0.073700 *  -2.48500    1.000000    
     12 Cl    s    0.556100 *  0.294700 *  0.926300 *  -2.48500    1.000000    
     13 Cl    s    0.705300 *  0.073700 *  0.443900 *  -2.48500    1.000000    
     14 Cl    s    0.926300 *  0.556100 *  0.294700 *  -2.48500    1.000000    
--------------------------------------------------------------------------------



********************************************************************************
*  General input information                                                   *
********************************************************************************

  Species output for all configurations : 

--------------------------------------------------------------------------------
  Species    Type    Atomic    Atomic    Charge       Radii (Angs)     Library
                     Number     Mass       (e)     Cova   Ionic  VDW   Symbol
--------------------------------------------------------------------------------
    Sc       Core       21      44.96   3.000000   1.440  0.000  2.150          
    Cl       Core       17      35.45   1.485000   0.990  0.000  1.650          
    Cl       Shell      17       0.00  -2.485000   0.990  0.000  1.650          
--------------------------------------------------------------------------------


  Lattice summation method               =    Ewald          (3-D)
                                         =    Parry          (2-D)
                                         =    Saunders et al (1-D)
  Accuracy factor for lattice sums       =   12.000


  Analytic derivatives to be used

  Time limit = Infinity

  Maximum range for interatomic potentials =    100000.000000 Angstroms

  General interatomic potentials :

--------------------------------------------------------------------------------
Atom  Types   Potential      Parameter       Value         Units   Cutoffs(Ang)
  1     2                                                            Min /  Max 
--------------------------------------------------------------------------------
Cl   c Cl   s Spring (c-s)  Spring k 2       36.070000    eV*Ang^-2 0.000  0.800
                            Spring k 4       0.0000000    eV*Ang^-4 
--------------------------------------------------------------------------------
Sc   c Cl   s Buckingham    Buckingham A     2456.2200    eV        0.000 12.000
                            Buckingham rho  0.31470000    Ang       
                            Buckingham C     0.0000000    eV*Ang^6  
--------------------------------------------------------------------------------
Cl   s Cl   s Buckingham    Buckingham A     1227.2000    eV        0.000 12.000
                            Buckingham rho  0.32100000    Ang       
                            Buckingham C     14.530000    eV*Ang^6  
--------------------------------------------------------------------------------

********************************************************************************
*  Output for configuration   1                                                *
********************************************************************************


  Components of energy : 

--------------------------------------------------------------------------------
  Interatomic potentials     =          10.39244711 eV    
  Monopole - monopole (real) =         -30.86300284 eV    
  Monopole - monopole (recip)=         -65.52201623 eV    
  Monopole - monopole (total)=         -96.38501907 eV    
--------------------------------------------------------------------------------
  Total lattice energy       =         -85.99257196 eV    
--------------------------------------------------------------------------------
  Total lattice energy       =           -8296.9687 kJ/(mole unit cells)
--------------------------------------------------------------------------------


  Number of variables =       45

  Maximum number of calculations  =          1000
  Maximum Hessian update interval =            10
  Maximum step size               =   1.000000000
  Maximum parameter tolerance     =   0.000010000
  Maximum function  tolerance     =   0.000010000
  Maximum gradient  tolerance     =   0.001000000
  Maximum gradient  component     =   0.010000000

  Symmetry not applied to optimisation

  Cell parameters to be optimised using strains

  Newton-Raphson optimiser to be used

  BFGS hessian update to be used

  Lower half triangular hessian to be used

  Start of bulk optimisation :

  Cycle:      0 Energy:       -85.992572  Gnorm:      8.922860  CPU:    0.032
  ** Hessian calculated **
  Cycle:      1 Energy:       -91.630693  Gnorm:      3.248521  CPU:    0.070
  ** Hessian calculated **
  Cycle:      2 Energy:       -93.407926  Gnorm:      0.241259  CPU:    0.117
  Cycle:      3 Energy:       -93.727483  Gnorm:      0.379189  CPU:    0.154
  Cycle:      4 Energy:       -93.872131  Gnorm:      0.419846  CPU:    0.186
  Cycle:      5 Energy:       -93.916106  Gnorm:      0.216759  CPU:    0.226
  Cycle:      6 Energy:       -93.955402  Gnorm:      0.236635  CPU:    0.266
  Cycle:      7 Energy:       -94.003608  Gnorm:      0.337075  CPU:    0.307
  Cycle:      8 Energy:       -94.063864  Gnorm:      0.300404  CPU:    0.349
  Cycle:      9 Energy:       -94.105073  Gnorm:      0.327302  CPU:    0.383
  Cycle:     10 Energy:       -94.152801  Gnorm:      0.172167  CPU:    0.425
  Cycle:     11 Energy:       -94.162078  Gnorm:      0.129678  CPU:    0.461
  ** Hessian calculated **
  Cycle:     12 Energy:       -94.184232  Gnorm:      0.042568  CPU:    0.519
  Cycle:     13 Energy:       -94.185870  Gnorm:      0.019064  CPU:    0.555
  Cycle:     14 Energy:       -94.186129  Gnorm:      0.004834  CPU:    0.592
  Cycle:     15 Energy:       -94.186171  Gnorm:      0.003759  CPU:    0.629


  **** Optimisation achieved ****


  Final energy =     -94.18617309 eV
  Final Gnorm  =       0.00026742

  Components of energy : 

--------------------------------------------------------------------------------
  Interatomic potentials     =          21.32396821 eV    
  Monopole - monopole (real) =          81.06426209 eV    
  Monopole - monopole (recip)=        -196.57440339 eV    
  Monopole - monopole (total)=        -115.51014130 eV    
--------------------------------------------------------------------------------
  Total lattice energy       =         -94.18617309 eV    
--------------------------------------------------------------------------------
  Total lattice energy       =           -9087.5259 kJ/(mole unit cells)
--------------------------------------------------------------------------------

  Final fractional coordinates of atoms :

--------------------------------------------------------------------------------
   No.  Atomic        x           y          z          Radius
        Label       (Frac)      (Frac)     (Frac)       (Angs) 
--------------------------------------------------------------------------------
     1  Sc    c     0.333900    0.333900    0.333900    0.000000
     2  Sc    c     0.667797    0.667813    0.667799    0.000000
     3  Cl    c     0.075682    0.445383    0.703391    0.000000
     4  Cl    c     0.297892    0.926501    0.556250    0.000000
     5  Cl    c     0.445899    0.703300    0.075286    0.000000
     6  Cl    c     0.555797    0.298410    0.926421    0.000000
     7  Cl    c     0.703804    0.075207    0.445450    0.000000
     8  Cl    c     0.926009    0.556319    0.298315    0.000000
     9  Cl    s     0.065947    0.452571    0.677260    0.000000
    10  Cl    s     0.324076    0.936176    0.549072    0.000000
    11  Cl    s     0.453018    0.677183    0.065599    0.000000
    12  Cl    s     0.548677    0.324526    0.936109    0.000000
    13  Cl    s     0.677621    0.065531    0.452629    0.000000
    14  Cl    s     0.935746    0.549133    0.324445    0.000000
--------------------------------------------------------------------------------

  Final Cartesian lattice vectors (Angstroms) :

        7.492716    0.017674    0.015750
        4.666685    5.870017    0.017236
        4.663123    2.258191    5.420142


  Final cell parameters and derivatives :

--------------------------------------------------------------------------------
       a            7.492753 Angstrom     dE/de1(xx)     0.001502 eV/strain
       b            7.499023 Angstrom     dE/de2(yy)     0.001130 eV/strain
       c            7.498139 Angstrom     dE/de3(zz)     0.001402 eV/strain
       alpha       51.360329 Degrees      dE/de4(yz)     0.000184 eV/strain
       beta        51.381576 Degrees      dE/de5(xz)     0.000594 eV/strain
       gamma       51.379896 Degrees      dE/de6(xy)     0.000958 eV/strain
--------------------------------------------------------------------------------

  Primitive cell volume =           237.388320 Angs**3

  Density of cell =      2.116870 g/cm**3

  Non-primitive cell volume =           237.388320 Angs**3


  Final internal derivatives :

--------------------------------------------------------------------------------
   No.  Atomic          a             b             c           Radius
        Label          (eV)          (eV)          (eV)        (eV/Angs)
--------------------------------------------------------------------------------
      1 Sc    c       0.000000      0.000000      0.000000      0.000000
      2 Sc    c       0.001681      0.001454      0.000124      0.000000
      3 Cl    c      -0.002719     -0.000640     -0.000937      0.000000
      4 Cl    c       0.000986      0.001285      0.000118      0.000000
      5 Cl    c       0.001446      0.000724      0.001502      0.000000
      6 Cl    c      -0.000978      0.000527     -0.000482      0.000000
      7 Cl    c      -0.001726     -0.001514     -0.000663      0.000000
      8 Cl    c       0.000842     -0.000977      0.000232      0.000000
      9 Cl    s       0.003561      0.001253      0.002922      0.000000
     10 Cl    s      -0.002865     -0.003016     -0.001029      0.000000
     11 Cl    s       0.001191      0.003381      0.002375      0.000000
     12 Cl    s      -0.001348     -0.004134     -0.001709      0.000000
     13 Cl    s       0.002463      0.001978      0.000726      0.000000
     14 Cl    s      -0.002693     -0.000158     -0.002951      0.000000
--------------------------------------------------------------------------------
  Maximum abs         0.003561      0.004134      0.002951      0.000000
--------------------------------------------------------------------------------

  Comparison of initial and final structures : 

--------------------------------------------------------------------------------
  Parameter   Initial value   Final value   Difference    Units      Percent
--------------------------------------------------------------------------------
    Volume       235.198534    237.388320     2.189785    Angs**3      0.93
    a              7.453000      7.492753     0.039753    Angstroms    0.53
    b              7.453000      7.499023     0.046023    Angstroms    0.62
    c              7.453000      7.498139     0.045139    Angstroms    0.61
    alpha         51.648000     51.360329    -0.287671    Degrees     -0.56
    beta          51.648000     51.381576    -0.266424    Degrees     -0.52
    gamma         51.648000     51.379896    -0.268104    Degrees     -0.52
      1 x          0.333900      0.333900     0.000000    Fractional   0.00
      1 y          0.333900      0.333900     0.000000    Fractional   0.00
      1 z          0.333900      0.333900     0.000000    Fractional   0.00
      2 x          0.666100      0.667797     0.001697    Fractional   0.25
      2 y          0.666100      0.667813     0.001713    Fractional   0.26
      2 z          0.666100      0.667799     0.001699    Fractional   0.25
      3 x          0.073700      0.075682     0.001982    Fractional   2.69
      3 y          0.443900      0.445383     0.001483    Fractional   0.33
      3 z          0.705300      0.703391     0.001909    Fractional   0.27
      4 x          0.294700      0.297892     0.003192    Fractional   1.08
      4 y          0.926300      0.926501     0.000201    Fractional   0.02
      4 z          0.556100      0.556250     0.000150    Fractional   0.03
      5 x          0.443900      0.445899     0.001999    Fractional   0.45
      5 y          0.705300      0.703300     0.002000    Fractional   0.28
      5 z          0.073700      0.075286     0.001586    Fractional   2.15
      6 x          0.556100      0.555797     0.000303    Fractional   0.05
      6 y          0.294700      0.298410     0.003710    Fractional   1.26
      6 z          0.926300      0.926421     0.000121    Fractional   0.01
      7 x          0.705300      0.703804     0.001496    Fractional   0.21
      7 y          0.073700      0.075207     0.001507    Fractional   2.04
      7 z          0.443900      0.445450     0.001550    Fractional   0.35
      8 x          0.926300      0.926009     0.000291    Fractional   0.03
      8 y          0.556100      0.556319     0.000219    Fractional   0.04
      8 z          0.294700      0.298315     0.003615    Fractional   1.23
      9 x          0.073700      0.065947     0.007753    Fractional  10.52
      9 y          0.443900      0.452571     0.008671    Fractional   1.95
      9 z          0.705300      0.677260     0.028040    Fractional   3.98
     10 x          0.294700      0.324076     0.029376    Fractional   9.97
     10 y          0.926300      0.936176     0.009876    Fractional   1.07
     10 z          0.556100      0.549072     0.007028    Fractional   1.26
     11 x          0.443900      0.453018     0.009118    Fractional   2.05
     11 y          0.705300      0.677183     0.028117    Fractional   3.99
     11 z          0.073700      0.065599     0.008101    Fractional  10.99
     12 x          0.556100      0.548677     0.007423    Fractional   1.33
     12 y          0.294700      0.324526     0.029826    Fractional  10.12
     12 z          0.926300      0.936109     0.009809    Fractional   1.06
     13 x          0.705300      0.677621     0.027679    Fractional   3.92
     13 y          0.073700      0.065531     0.008169    Fractional  11.08
     13 z          0.443900      0.452629     0.008729    Fractional   1.97
     14 x          0.926300      0.935746     0.009446    Fractional   1.02
     14 y          0.556100      0.549133     0.006967    Fractional   1.25
     14 z          0.294700      0.324445     0.029745    Fractional  10.09
--------------------------------------------------------------------------------


  Born effective charge tensors : 

-------------------------------------------------------------------------------
  Atom             x           y             z
-------------------------------------------------------------------------------
    1 Sc    x       2.2285     -0.2571     -0.1710
            y      -0.2560      2.6360     -0.0847
            z      -0.1727     -0.0813      2.7043
-------------------------------------------------------------------------------
    2 Sc    x       2.2285     -0.2571     -0.1710
            y      -0.2560      2.6360     -0.0846
            z      -0.1727     -0.0813      2.7044
-------------------------------------------------------------------------------
    3 Cl    x      -0.8062      0.2256      0.0411
            y       0.2160     -0.8834     -0.1927
            z       0.0553     -0.1841     -0.8334
-------------------------------------------------------------------------------
    4 Cl    x      -0.7835      0.1157      0.0049
            y       0.1062     -0.9970      0.2420
            z      -0.0106      0.2360     -0.7424
-------------------------------------------------------------------------------
    5 Cl    x      -0.6388     -0.0842      0.1250
            y      -0.0662     -0.7556      0.0353
            z       0.1280      0.0294     -1.1285
-------------------------------------------------------------------------------
    6 Cl    x      -0.6388     -0.0842      0.1250
            y      -0.0662     -0.7556      0.0353
            z       0.1280      0.0294     -1.1285
-------------------------------------------------------------------------------
    7 Cl    x      -0.7835      0.1157      0.0049
            y       0.1062     -0.9970      0.2420
            z      -0.0106      0.2360     -0.7424
-------------------------------------------------------------------------------
    8 Cl    x      -0.8062      0.2256      0.0411
            y       0.2160     -0.8834     -0.1927
            z       0.0553     -0.1841     -0.8334
-------------------------------------------------------------------------------




  Elastic Constant Matrix: (Units=GPa)

-------------------------------------------------------------------------------
  Indices      1         2         3         4         5         6    
-------------------------------------------------------------------------------
       1      3.6214    8.6385    8.0518    0.5781   -2.6064   -3.9922
       2      8.6385   31.8741   23.2528   -4.4482   -5.2569  -13.8933
       3      8.0518   23.2528   39.7403   -4.9820  -10.4619   -9.4746
       4      0.5781   -4.4482   -4.9820    7.0058   -1.6207    0.0048
       5     -2.6064   -5.2569  -10.4619   -1.6207    4.2787    3.1180
       6     -3.9922  -13.8933   -9.4746    0.0048    3.1180    6.9568
-------------------------------------------------------------------------------


  Elastic Compliance Matrix: (Units=1/GPa)

-------------------------------------------------------------------------------
  Indices      1         2         3         4         5         6    
-------------------------------------------------------------------------------
       1    4.139658 -2.323081 -1.150848 -3.167637 -2.310781 -2.793293
       2   -2.323081  2.746677 -0.244172  1.461210 -1.287173  4.395552
       3   -1.150848 -0.244172  1.480853  1.927327  4.035931 -0.941456
       4   -3.167637  1.461210  1.927327  3.842313  4.931639  1.512259
       5   -2.310781 -1.287173  4.035931  4.931639 11.609238 -3.606608
       6   -2.793293  4.395552 -0.941456  1.512259 -3.606608  7.652260
-------------------------------------------------------------------------------

  Mechanical properties :

-------------------------------------------------------------------------------
  Convention :                    Reuss         Voigt         Hill
-------------------------------------------------------------------------------
  Bulk  Modulus (GPa)     =       1.07413      17.23576       9.15495
  Shear Modulus (GPa)     =       0.12749       6.00110       3.06430
-------------------------------------------------------------------------------
  Velocity S-wave (km/s)  =       0.24541       1.68371       1.20315
  Velocity P-wave (km/s)  =       0.76663       3.45282       2.50097
-------------------------------------------------------------------------------
  Compressibility (1/GPa) =    0.93098656
-------------------------------------------------------------------------------
  Stress axis :                     x             y             z
-------------------------------------------------------------------------------
  Youngs Moduli (GPa)     =       0.24157       0.36408       0.67529
-------------------------------------------------------------------------------
  Poissons Ratio (x)      =                     0.84578       0.77715
  Poissons Ratio (y)      =       0.56118                     0.16489
  Poissons Ratio (z)      =       0.27801       0.08890
-------------------------------------------------------------------------------


  Piezoelectric Strain Matrix: (Units=C/m**2)

-------------------------------------------------------------------------------
  Indices      1         2         3         4         5         6    
-------------------------------------------------------------------------------
       x    -0.00008   0.00014   0.00001  -0.00009   0.00009  -0.00005
       y    -0.00004  -0.00012   0.00007   0.00004  -0.00006  -0.00002
       z    -0.00006  -0.00018  -0.00004  -0.00005   0.00002   0.00008
-------------------------------------------------------------------------------


  Piezoelectric Stress Matrix: (Units=10**-11 C/N)

-------------------------------------------------------------------------------
  Indices      1         2         3         4         5         6    
-------------------------------------------------------------------------------
       x    -0.04806   0.01066   0.03304   0.05336   0.08812  -0.00159
       y     0.01097  -0.01943   0.00109  -0.01104   0.00386  -0.03303
       z     0.00895  -0.00670  -0.00499  -0.01237  -0.01368  -0.00769
-------------------------------------------------------------------------------


  Static dielectric constant tensor : 

-------------------------------------------------------------------------------
              x         y         z
-------------------------------------------------------------------------------
       x     2.55749  -0.36997  -0.24788
       y    -0.36997   3.14505  -0.11962
       z    -0.24788  -0.11962   3.24356
--------------------------------------------------------------------------------

  High frequency dielectric constant tensor : 

-------------------------------------------------------------------------------
              x         y         z
-------------------------------------------------------------------------------
       x     1.82639  -0.04056  -0.02716
       y    -0.04056   1.89075  -0.01312
       z    -0.02716  -0.01312   1.90154
-------------------------------------------------------------------------------

  Static refractive indices : 

-------------------------------------------------------------------------------
    1 =    1.51614      2 =    1.82309      3 =    1.82312
-------------------------------------------------------------------------------

  High frequency refractive indices : 

-------------------------------------------------------------------------------
    1 =    1.34090      2 =    1.38214      3 =    1.38215
-------------------------------------------------------------------------------


  Time to end of optimisation =       0.6962 seconds

********************************************************************************
*  Defect calculation for configuration   1 :                                  *
********************************************************************************



!!!!!!!!!!!!!!!!!!!!!!!!!!!!!!!!!!!!!!!!!!!!!!!!!!!!!!!!!!!!!!!!!!!!!!!!!!!!!!!!
!! WARNING : Ambiguous vacancy specifier used
!!!!!!!!!!!!!!!!!!!!!!!!!!!!!!!!!!!!!!!!!!!!!!!!!!!!!!!!!!!!!!!!!!!!!!!!!!!!!!!!



!!!!!!!!!!!!!!!!!!!!!!!!!!!!!!!!!!!!!!!!!!!!!!!!!!!!!!!!!!!!!!!!!!!!!!!!!!!!!!!!
!! WARNING : Ambiguous vacancy specifier used
!!!!!!!!!!!!!!!!!!!!!!!!!!!!!!!!!!!!!!!!!!!!!!!!!!!!!!!!!!!!!!!!!!!!!!!!!!!!!!!!

  Total number of defects =      2

  Total charge on defect  =   1.00

  Defect centre is at   0.0737   0.4439   0.7053  Frac

  Region 1 radius =  18.0000      Number of ions =   1428

  Region 2 radius =  24.0000      Number of ions =   2009

  Region 2a mode = 4 : screened electrostatics due to region 1 
                       neglect correction to region 1 forces from 2a
                       region 2a displacements based on defects only

  Region 2a ions will only interact with defects in region 1

  Vacancies:

--------------------------------------------------------------------------------
    Specification type     Symbol/Number         x          y          z
--------------------------------------------------------------------------------
    Atom                    Cl    core
    Atom                    Cl    shel
--------------------------------------------------------------------------------


  Components of defect energy : 

--------------------------------------------------------------------------------
  Region 1 - region 1                   =      9.31354404 eV
  Region 1 - region 2a (unrelaxed)      =      0.22093044 eV
  Region 1 - 2a (relaxed - correction)  =     -0.13205405 eV
  Region 1 (Total)                      =      9.40242043 eV
  Region 2a                             =      0.06603085 eV
  Region 2b                             =     -0.19638630 eV
--------------------------------------------------------------------------------
  Total defect energy                   =      9.27206498 eV
--------------------------------------------------------------------------------

  Largest displacement in region 2 =   0.0064 Angstroms


  Number of variables =     4284

  Maximum number of calculations  =        1000
  Maximum Hessian update interval =          10
  Maximum step size               =   1.0000000
  Maximum parameter tolerance     =   0.0000100
  Maximum function  tolerance     =   0.0000100
  Maximum gradient  tolerance     =   0.0010000

  Symmetry adapted optimisation

  Newton-Raphson optimiser to be used

  BFGS hessian update to be used

  Lower half triangular hessian to be used

  Start of defect optimisation :

  Cycle:      0 Defect Energy:   9.272065  Gnorm:     0.004012  CPU:   31.168
  ** Hessian calculated **
  Cycle:      1 Defect Energy:   8.450280  Gnorm:     0.003445  CPU:  160.807
  ** Hessian calculated **
  Cycle:      2 Defect Energy:   7.569738  Gnorm:     0.002726  CPU:  261.755
  Cycle:      3 Defect Energy:   6.454051  Gnorm:     0.001371  CPU:  290.262
  Cycle:      4 Defect Energy:   6.138586  Gnorm:     0.000727  CPU:  313.637
  Cycle:      5 Defect Energy:   6.053043  Gnorm:     0.000559  CPU:  318.159
  Cycle:      6 Defect Energy:   5.965139  Gnorm:     0.000356  CPU:  322.664
  Cycle:      7 Defect Energy:   5.917893  Gnorm:     0.000237  CPU:  327.144
  Cycle:      8 Defect Energy:   5.889636  Gnorm:     0.000161  CPU:  331.563
  Cycle:      9 Defect Energy:   5.875347  Gnorm:     0.000127  CPU:  335.983
  ** Hessian calculated **
  Cycle:     10 Defect Energy:   5.860560  Gnorm:     0.000089  CPU:  406.021
  Cycle:     11 Defect Energy:   5.852453  Gnorm:     0.000062  CPU:  410.002
  Cycle:     12 Defect Energy:   5.847588  Gnorm:     0.000044  CPU:  413.989
  Cycle:     13 Defect Energy:   5.844664  Gnorm:     0.000031  CPU:  417.967
  Cycle:     14 Defect Energy:   5.842908  Gnorm:     0.000022  CPU:  421.942
  Cycle:     15 Defect Energy:   5.841870  Gnorm:     0.000016  CPU:  425.931
  Cycle:     16 Defect Energy:   5.841279  Gnorm:     0.000011  CPU:  429.919
  Cycle:     17 Defect Energy:   5.840951  Gnorm:     0.000008  CPU:  433.921
  Cycle:     18 Defect Energy:   5.840762  Gnorm:     0.000006  CPU:  437.913
  Cycle:     19 Defect Energy:   5.840673  Gnorm:     0.000004  CPU:  441.926
  ** Hessian calculated **
  Cycle:     20 Defect Energy:   5.840620  Gnorm:     0.000003  CPU:  503.345
  Cycle:     21 Defect Energy:   5.840589  Gnorm:     0.000002  CPU:  507.336


  **** Optimisation achieved ****


  Final defect energy  =        5.84058092
  Final defect Gnorm   =        0.00000144

  Components of defect energy : 

--------------------------------------------------------------------------------
  Region 1 - region 1                   =      6.82620236 eV
  Region 1 - region 2a (unrelaxed)      =     -0.73128187 eV
  Region 1 - 2a (relaxed - correction)  =     -0.11547730 eV
  Region 1 (Total)                      =      5.97944319 eV
  Region 2a                             =      0.05772609 eV
  Region 2b                             =     -0.19658835 eV
--------------------------------------------------------------------------------
  Total defect energy                   =      5.84058092 eV
--------------------------------------------------------------------------------

  Largest displacement in region 2 =   0.0064 Angstroms

  Final coordinates of region 1 :

--------------------------------------------------------------------------------
   No.  Atomic        x           y           z          Radius      Charge
        Label       (Angs)      (Angs)      (Angs)       (Angs)       (e) 
--------------------------------------------------------------------------------
     1  Sc    c     3.286189    5.658339    3.779155    0.000000    3.000000
     2  Sc    c     5.638770    2.279894    1.524637    0.000000    3.000000
     3  Cl    c     3.944809    3.885919    2.235763    0.000000    1.485000
     4  Cl    c     4.192980    6.430239    5.922492    0.000000    1.485000
     5  Cl    c     7.684575    1.437795    2.584442    0.000000    1.485000
     6  Cl    c     6.869251    4.075731    0.364738    0.000000    1.485000
     7  Cl    c     4.625896    7.287001    2.501937    0.000000    1.485000
     8  Cl    c     2.172378    3.915407    5.112814    0.000000    1.485000
     9  Cl    c     4.479649    0.613717    2.914936    0.000000    1.485000
    10  Cl    c     9.829119    3.874893    5.025142    0.000000    1.485000
    11  Cl    c     4.809477    3.605996    7.818951    0.000000    1.485000
    12  Cl    c     9.134970    6.678590    3.014125    0.000000    1.485000
    13  Cl    c     6.864772    0.662267    5.859895    0.000000    1.485000
    14  Cl    c     8.082111    6.183962    7.050273    0.000000    1.485000
    15  Sc    c     2.734307    4.917343    7.394764    0.000000    3.000000
    16  Sc    c     6.590375   -0.582985    3.721392    0.000000    3.000000
    17  Cl    c     1.329201    6.812836    2.879931    0.000000    1.485000
    18  Cl    c     5.082506    1.449006   -0.704073    0.000000    1.485000
    19  Sc    c    11.233436    5.436402    3.638115    0.000000    3.000000
    20  Cl    c    10.903232    3.933948    1.653929    0.000000    1.485000
    21  Sc    c    10.276707    4.974870    7.245250    0.000000    3.000000
    22  Cl    c     3.385832    0.270740    7.067174    0.000000    1.485000
    23  Sc    c     2.640880    8.689266    1.713839    0.000000    3.000000
    24  Cl    c     9.131938    3.075699    8.414755    0.000000    1.485000
    25  Sc    c     6.529783    3.143239   -1.987597    0.000000    3.000000
    26  Cl    c     7.028353    9.703988    5.034471    0.000000    1.485000
    27  Sc    c     3.690620    1.726231    9.091497    0.000000    3.000000
    28  Sc    c     5.558765   -0.965580    7.294250    0.000000    3.000000
    29  Cl    c     1.598870    3.008059    8.506669    0.000000    1.485000
    30  Cl    c     5.177661   -2.110188    5.081237    0.000000    1.485000
    31  Cl    c     4.451889    4.435463   -2.455412    0.000000    1.485000
    32  Cl    c     2.331798    7.471482   -0.435822    0.000000    1.485000
    33  Cl    c     8.066534    9.778240    1.653874    0.000000    1.485000
    34  Cl    c     3.090165    6.455857    9.312045    0.000000    1.485000
    35  Cl    c     5.892487    0.550411    9.257943    0.000000    1.485000
    36  Cl    c     0.177453    1.442314    2.411052    0.000000    1.485000
    37  Cl    c     2.986714   10.017890    3.796826    0.000000    1.485000
    38  Cl    c     8.797400   -1.711661    3.857472    0.000000    1.485000
    39  Cl    c     0.640663    6.232130    7.060846    0.000000    1.485000
    40  Sc    c    10.269778    8.589307    1.827629    0.000000    3.000000
    41  Cl    c     6.330788   -1.909495    1.622950    0.000000    1.485000
    42  Cl    c     5.868226    7.784813   -1.598697    0.000000    1.485000
    43  Cl    c     8.660573    1.901194   -1.622948    0.000000    1.485000
    44  Cl    c    11.623978    6.557485    5.842439    0.000000    1.485000
    45  Cl    c     6.306292    8.921696    8.416362    0.000000    1.485000
    46  Cl    c     9.855644    7.464884   -0.374782    0.000000    1.485000
    47  Sc    c     8.396500    7.681981    9.051942    0.000000    3.000000
    48  Cl    c     7.031332    6.096591   10.435122    0.000000    1.485000
    49  Cl    c    11.966280    0.837464    3.027488    0.000000    1.485000
    50  Cl    c     4.132158   10.161859    0.377095    0.000000    1.485000
    51  Cl    c    10.909363    0.333339    7.039465    0.000000    1.485000
    52  Cl    c     7.675980    5.094909   -3.012390    0.000000    1.485000
    53  Cl    c    -0.518055    4.246967    0.412041    0.000000    1.485000
    54  Cl    c    12.348828    7.325571    2.435691    0.000000    1.485000
    55  Cl    c    -1.580770    4.181305    3.776215    0.000000    1.485000
    56  Cl    c     1.255371   -1.650189    3.779864    0.000000    1.485000
    57  Cl    c     1.235322    1.934517   -1.608068    0.000000    1.485000
    58  Cl    c    10.576873    6.459456    9.238793    0.000000    1.485000
    59  Cl    c    13.402816    4.208346    3.837845    0.000000    1.485000
    60  Cl    c    10.567043   10.056663    3.836695    0.000000    1.485000
    61  Sc    c     8.391610   11.290113    3.638499    0.000000    3.000000
    62  Cl    c    -0.533221    0.664979    5.803374    0.000000    1.485000
    63  Sc    c    13.105155    2.726101    1.832053    0.000000    3.000000
    64  Cl    c     2.290830   -1.573259    0.398815    0.000000    1.485000
    65  Sc    c     7.442863   10.831559    7.243471    0.000000    3.000000
    66  Cl    c    12.350766    3.702891    7.830345    0.000000    1.485000
    67  Cl    c     9.523787    9.560591    7.837015    0.000000    1.485000
    68  Cl    c     7.666047   -2.188366    7.839756    0.000000    1.485000
    69  Sc    c     3.717168    9.052222   -1.847347    0.000000    3.000000
    70  Cl    c     4.103172    2.907711   11.250098    0.000000    1.485000
    71  Sc    c     5.587293    6.358274   -3.645370    0.000000    3.000000
    72  Cl    c     2.044370    9.564937    7.830063    0.000000    1.485000
    73  Cl    c     9.806785   -1.545716    0.415679    0.000000    1.485000
    74  Sc    c    11.219893    1.815731    9.042077    0.000000    3.000000
    75  Sc    c     0.911723    7.721321    9.086877    0.000000    3.000000
    76  Sc    c     8.512050   -3.172568    1.810527    0.000000    3.000000
    77  Cl    c     0.492359    9.923619    1.573795    0.000000    1.485000
    78  Cl    c     6.277107    1.646344   -3.952647    0.000000    1.485000
    79  Sc    c    -1.924561    2.680525    1.791151    0.000000    3.000000
    80  Sc    c    -0.950702   -0.466453    3.605415    0.000000    3.000000
    81  Cl    c    12.680016    1.615557   -0.374626    0.000000    1.485000
    82  Cl    c     6.306911   12.539653    3.021132    0.000000    1.485000
    83  Cl    c     2.342468    0.167705   10.492027    0.000000    1.485000
    84  Cl    c     4.452513   -2.855175    8.480109    0.000000    1.485000
    85  Cl    c    -0.465099    9.708187    5.036932    0.000000    1.485000
    86  Cl    c     7.323122   -1.438903   -2.401698    0.000000    1.485000
    87  Cl    c     5.254772   12.037486    7.051407    0.000000    1.485000
    88  Cl    c     9.848019    0.242304   10.430653    0.000000    1.485000
    89  Sc    c     0.835890   11.334643    3.644336    0.000000    3.000000
    90  Sc    c     8.459802    0.408088   -3.653264    0.000000    3.000000
    91  Cl    c     3.391122    7.545915   -3.821320    0.000000    1.485000
    92  Cl    c    11.967559    4.453336   -2.375380    0.000000    1.485000
    93  Sc    c    -0.954785    3.149915   -1.811112    0.000000    3.000000
    94  Cl    c     0.196713    5.046852   -2.976303    0.000000    1.485000
    95  Cl    c     3.019672   -0.794397   -2.979317    0.000000    1.485000
    96  Cl    c     8.797144   12.408798    5.842448    0.000000    1.485000
    97  Cl    c    11.616391   10.174680    0.435557    0.000000    1.485000
    98  Cl    c     8.081470    2.580185   12.446363    0.000000    1.485000
    99  Sc    c     0.934306   -3.164558    1.797025    0.000000    3.000000
   100  Sc    c    11.225325    9.049866   -1.774036    0.000000    3.000000
   101  Cl    c    -2.631508    7.282473    2.406330    0.000000    1.485000
   102  Cl    c     3.025473   -4.403572    2.413451    0.000000    1.485000
   103  Cl    c     8.792944    8.804626   11.251470    0.000000    1.485000
   104  Cl    c    14.441337    4.323691    0.440547    0.000000    1.485000
   105  Cl    c    12.680979   -1.998588    5.026872    0.000000    1.485000
   106  Cl    c     9.139415   10.304892   -2.379475    0.000000    1.485000
   107  Cl    c    -0.422164    6.096700   10.441682    0.000000    1.485000
   108  Cl    c     7.342718   -5.018086    3.024227    0.000000    1.485000
   109  Sc    c    14.058083   -0.423740    3.638974    0.000000    3.000000
   110  Cl    c    -2.626539    3.676448    7.809849    0.000000    1.485000
   111  Cl    c     0.197281   -2.170069    7.810093    0.000000    1.485000
   112  Sc    c    13.100152   -0.885941    7.237630    0.000000    3.000000
   113  Sc    c     7.441187    7.215697   12.652198    0.000000    3.000000
   114  Cl    c    11.610526    2.952573   11.237885    0.000000    1.485000
   115  Cl    c    14.443853    0.709375    5.841348    0.000000    1.485000
   116  Sc    c    -0.051481   10.838859    7.247867    0.000000    3.000000
   117  Sc    c     9.419243   -2.695845   -1.791982    0.000000    3.000000
   118  Cl    c    -3.034514    0.790841    2.996513    0.000000    1.485000
   119  Cl    c    -2.312311    1.567095   -0.416493    0.000000    1.485000
   120  Cl    c     1.316298   12.410358    5.848849    0.000000    1.485000
   121  Cl    c    10.546085   -0.794153   -2.976942    0.000000    1.485000
   122  Cl    c     6.954192    7.935740   -5.011272    0.000000    1.485000
   123  Cl    c     4.863270   10.930799   -3.018686    0.000000    1.485000
   124  Cl    c     5.258720    8.432763   12.449936    0.000000    1.485000
   125  Cl    c    -1.175078    8.940687    8.440757    0.000000    1.485000
   126  Cl    c    -1.245615   -1.938965    1.599436    0.000000    1.485000
   127  Sc    c     0.929219    0.443784   -3.616707    0.000000    3.000000
   128  Cl    c     8.058828   -4.270312   -0.389728    0.000000    1.485000
   129  Cl    c     1.637951   10.317188   -2.404898    0.000000    1.485000
   130  Cl    c     5.214024    5.203682   -5.825772    0.000000    1.485000
   131  Cl    c    10.909312    7.549615   -3.760093    0.000000    1.485000
   132  Sc    c    -3.777822    5.400999    3.604949    0.000000    3.000000
   133  Cl    c    -3.339066    6.511710    5.808835    0.000000    1.485000
   134  Sc    c     1.884333   -2.706367   -1.809908    0.000000    3.000000
   135  Sc    c     2.758140    1.331834   12.689335    0.000000    3.000000
   136  Sc    c     6.567894   -4.101894    9.059624    0.000000    3.000000
   137  Cl    c     2.297717    2.034334   -4.990466    0.000000    1.485000
   138  Cl    c    15.184469    1.470292    2.440017    0.000000    1.485000
   139  Cl    c     9.525743   13.165470    2.431315    0.000000    1.485000
   140  Cl    c     1.320577    8.817458   11.287960    0.000000    1.485000
   141  Cl    c    10.576542   -4.424487    2.436237    0.000000    1.485000
   142  Cl    c     2.019219   13.173749    2.434803    0.000000    1.485000
   143  Cl    c     9.798416    2.039488   -4.994916    0.000000    1.485000
   144  Cl    c    -1.567801    0.582071    9.194126    0.000000    1.485000
   145  Sc    c    -1.893683   -0.920409    7.211315    0.000000    3.000000
   146  Cl    c    -1.574501    7.791708   -1.598962    0.000000    1.485000
   147  Cl    c    13.402067    0.603637    9.234268    0.000000    1.485000
   148  Cl    c     4.076669   -3.903031   -1.608301    0.000000    1.485000
   149  Cl    c     7.749087   12.303912    9.244783    0.000000    1.485000
   150  Cl    c    13.399198    7.822853   -1.562715    0.000000    1.485000
   151  Sc    c    14.055349    3.194337   -1.768828    0.000000    3.000000
   152  Cl    c     6.305936    5.317618   13.831874    0.000000    1.485000
   153  Cl    c     7.041399   13.315223   -0.372188    0.000000    1.485000
   154  Cl    c    13.743692   -1.903022    1.638577    0.000000    1.485000
   155  Cl    c    -4.089997    3.915582    1.603123    0.000000    1.485000
   156  Sc    c    10.266075    1.360423   12.643022    0.000000    3.000000
   157  Cl    c     2.300334   -5.176806    5.809391    0.000000    1.485000
   158  Cl    c     0.591946    2.565982   12.457867    0.000000    1.485000
   159  Cl    c     6.262605   -5.548926    7.037378    0.000000    1.485000
   160  Cl    c     9.523554    5.949805   13.238576    0.000000    1.485000
   161  Cl    c     4.855803    0.082392   13.247115    0.000000    1.485000
   162  Cl    c    11.962127   -2.771847    8.431624    0.000000    1.485000
   163  Cl    c    13.813319    8.954549    8.449810    0.000000    1.485000
   164  Cl    c     2.038460    5.936448   13.247991    0.000000    1.485000
   165  Cl    c    14.540471    9.727472    5.052699    0.000000    1.485000
   166  Cl    c     6.961994   -2.934709   11.238366    0.000000    1.485000
   167  Cl    c     4.213402   11.944961   10.441256    0.000000    1.485000
   168  Cl    c     9.796664   -5.168825    5.836577    0.000000    1.485000
   169  Cl    c    -2.291992   -2.049406    5.004667    0.000000    1.485000
   170  Cl    c    -0.197933   -1.439931   -2.408607    0.000000    1.485000
   171  Cl    c    15.587788    6.211024    7.065414    0.000000    1.485000
   172  Sc    c    13.106375    6.345998   -3.572799    0.000000    3.000000
   173  Sc    c     7.445750   14.442025    1.832005    0.000000    3.000000
   174  Sc    c     5.568268   13.534619    9.050565    0.000000    3.000000
   175  Cl    c    -1.250537    1.666786   -3.806669    0.000000    1.485000
   176  Cl    c    -3.024983    4.426531   -2.400262    0.000000    1.485000
   177  Cl    c     0.533178   -4.284317   -0.406977    0.000000    1.485000
   178  Sc    c     8.394126    4.063575   14.451003    0.000000    3.000000
   179  Cl    c    12.761106   12.062054    7.066967    0.000000    1.485000
   180  Sc    c    -1.886430    6.314170   -3.604486    0.000000    3.000000
   181  Cl    c    -1.220985   12.607840    3.038333    0.000000    1.485000
   182  Cl    c     8.079313   -0.696911   -5.854690    0.000000    1.485000
   183  Sc    c    -0.043030    7.208754   12.669381    0.000000    3.000000
   184  Cl    c    14.535429    6.115856   10.454371    0.000000    1.485000
   185  Sc    c     9.417171   -6.310591    3.638643    0.000000    3.000000
   186  Cl    c    16.643682    6.716371    3.048843    0.000000    1.485000
   187  Cl    c    -5.112852    3.809137    5.003395    0.000000    1.485000
   188  Cl    c    -0.189743   -5.043364    3.007268    0.000000    1.485000
   189  Sc    c    -4.713974    4.939314    7.210669    0.000000    3.000000
   190  Cl    c    -4.067611    0.307538    7.008087    0.000000    1.485000
   191  Cl    c    13.743090    1.705317   -3.761478    0.000000    1.485000
   192  Sc    c    -3.764201    1.787592    9.014802    0.000000    3.000000
   193  Sc    c     1.896941   -6.309073    3.608280    0.000000    3.000000
   194  Cl    c     3.087221    2.842885   14.655812    0.000000    1.485000
   195  Cl    c     0.267997   12.307679    9.245339    0.000000    1.485000
   196  Cl    c     8.765320   -5.282614    9.228091    0.000000    1.485000
   197  Cl    c     3.090251   13.661556   -1.588204    0.000000    1.485000
   198  Cl    c    11.596172   -3.903658   -1.582289    0.000000    1.485000
   199  Cl    c     8.744334    5.571754   -6.991564    0.000000    1.485000
   200  Sc    c     2.775603   12.215565   -3.610672    0.000000    3.000000
   201  Sc    c     6.573897    6.798955   -7.228032    0.000000    3.000000
   202  Cl    c    15.590093    9.820896    1.663921    0.000000    1.485000
   203  Cl    c    -3.337382   10.128481    0.412894    0.000000    1.485000
   204  Cl    c    -0.508687    7.888431   -4.986381    0.000000    1.485000
   205  Cl    c    17.364627    3.876024    5.050882    0.000000    1.485000
   206  Cl    c     9.132783   -0.531102   13.832745    0.000000    1.485000
   207  Cl    c    13.817301   12.567330    3.049355    0.000000    1.485000
   208  Cl    c    15.186796    5.087816   -2.956814    0.000000    1.485000
   209  Cl    c    12.358647   10.936434   -2.966029    0.000000    1.485000
   210  Cl    c     4.219130   15.555857    5.036911    0.000000    1.485000
   211  Sc    c    -4.717292    8.556136    1.799915    0.000000    3.000000
   212  Cl    c     3.435775   -3.286982   12.443975    0.000000    1.485000
   213  Cl    c     5.258503   15.650881    1.646138    0.000000    1.485000
   214  Sc    c     0.897316    4.055877   14.460681    0.000000    3.000000
   215  Sc    c    14.949727   10.850063    7.260143    0.000000    3.000000
   216  Cl    c    16.638951    3.104277    8.451104    0.000000    1.485000
   217  Sc    c     8.450393   -6.771074    7.228536    0.000000    3.000000
   218  Cl    c    -2.227025   12.050635    7.041732    0.000000    1.485000
   219  Cl    c     9.105198   -4.166253   -3.789709    0.000000    1.485000
   220  Cl    c    11.711516   11.966687   10.456376    0.000000    1.485000
   221  Sc    c    10.277267   12.203095   -3.574750    0.000000    3.000000
   222  Sc    c    15.900562    7.699192    9.064236    0.000000    3.000000
   223  Cl    c     3.485083   14.786266    8.431842    0.000000    1.485000
   224  Cl    c    12.702492    5.223997   -5.776333    0.000000    1.485000
   225  Cl    c    12.758220    8.451768   12.467928    0.000000    1.485000
   226  Cl    c    -4.393645    6.428367    9.201997    0.000000    1.485000
   227  Cl    c    -4.395231   10.033966    3.799738    0.000000    1.485000
   228  Cl    c     1.262378   -5.268862    9.198575    0.000000    1.485000
   229  Cl    c     5.210856   -5.668549   10.457696    0.000000    1.485000
   230  Cl    c     1.640309   -0.562131   13.875283    0.000000    1.485000
   231  Cl    c    10.579644    2.849287   14.635818    0.000000    1.485000
   232  Cl    c     7.751459    8.699969   14.645950    0.000000    1.485000
   233  Cl    c     4.088657   -7.509656    3.794815    0.000000    1.485000
   234  Cl    c    16.237068   -1.638705    3.834357    0.000000    1.485000
   235  Cl    c     1.261167    5.553581   -7.001224    0.000000    1.485000
   236  Cl    c    16.231354    1.973925   -1.561305    0.000000    1.485000
   237  Cl    c    -0.438054   13.314420   -0.377095    0.000000    1.485000
   238  Cl    c     4.083759   -0.294933   -7.003144    0.000000    1.485000
   239  Cl    c     7.753789   15.910129    3.839444    0.000000    1.485000
   240  Cl    c     7.329314    2.197271   -7.795905    0.000000    1.485000
   241  Cl    c    10.579713   13.672998   -1.564455    0.000000    1.485000
   242  Sc    c    -0.931675   -4.067884    9.014831    0.000000    3.000000
   243  Cl    c    -3.351255    2.912939   11.214791    0.000000    1.485000
   244  Cl    c    15.181045   -2.142827    7.838897    0.000000    1.485000
   245  Cl    c     5.131312   -3.806721   -4.994172    0.000000    1.485000
   246  Cl    c     6.704711   15.411036    7.841292    0.000000    1.485000
   247  Sc    c    -0.049149   14.469927    1.812707    0.000000    3.000000
   248  Sc    c     9.421197    0.936752   -7.226280    0.000000    3.000000
   249  Cl    c    -5.851521    6.666442    2.999808    0.000000    1.485000
   250  Cl    c     0.542321   -0.673766   -5.820176    0.000000    1.485000
   251  Sc    c     5.567659    9.921730   14.454327    0.000000    3.000000
   252  Cl    c    -0.525494   -2.936681   11.213622    0.000000    1.485000
   253  Cl    c     1.590598   -4.181659   -3.809864    0.000000    1.485000
   254  Cl    c    12.349633    0.100593   13.234223    0.000000    1.485000
   255  Cl    c     5.129622   -7.416838    0.406374    0.000000    1.485000
   256  Cl    c     6.701339   11.803321   13.244861    0.000000    1.485000
   257  Cl    c     8.086592   13.410391   -3.760105    0.000000    1.485000
   258  Sc    c    -3.760222    9.019205   -1.798372    0.000000    3.000000
   259  Sc    c     1.900423    0.918982   -7.211411    0.000000    3.000000
   260  Cl    c     7.037332    2.480113   15.842827    0.000000    1.485000
   261  Cl    c    14.801649   -1.396598   -2.372520    0.000000    1.485000
   262  Cl    c    -3.018406   -2.807302    8.409688    0.000000    1.485000
   263  Cl    c    -5.108981    7.426418   -0.403348    0.000000    1.485000
   264  Sc    c    15.904142   11.312069    3.659821    0.000000    3.000000
   265  Cl    c    -1.184629    5.309721   13.834893    0.000000    1.485000
   266  Cl    c     8.034625   -7.879895    5.017631    0.000000    1.485000
   267  Sc    c     3.777809   -5.401506   -3.608547    0.000000    3.000000
   268  Cl    c     4.485126    8.054748   -7.804550    0.000000    1.485000
   269  Cl    c     2.381862   11.067281   -5.799506    0.000000    1.485000
   270  Sc    c     8.403431   14.904496   -1.766696    0.000000    3.000000
   271  Sc    c    17.776299    4.995798    7.258793    0.000000    3.000000
   272  Sc    c     3.740473   -1.817597   14.456287    0.000000    3.000000
   273  Sc    c     5.612935   -4.515550   12.654359    0.000000    3.000000
   274  Cl    c     3.482371   11.174171   13.835617    0.000000    1.485000
   275  Cl    c    10.913642   -3.272405   12.445923    0.000000    1.485000
   276  Cl    c     9.875879   11.076742   -5.777225    0.000000    1.485000
   277  Cl    c    -1.233741   -5.541919    7.007450    0.000000    1.485000
   278  Sc    c     0.945836   -6.768280    7.209470    0.000000    3.000000
   279  Sc    c    15.934688   -3.122490    1.829314    0.000000    3.000000
   280  Cl    c    -2.216392    8.427856   12.441236    0.000000    1.485000
   281  Sc    c     4.618545   13.071964   12.651195    0.000000    3.000000
   282  Cl    c     9.099361   -7.764596    1.625109    0.000000    1.485000
   283  Cl    c    17.370883    7.486711   -0.351174    0.000000    1.485000
   284  Cl    c     3.039131    2.818557   -8.385535    0.000000    1.485000
   285  Cl    c    10.986994   14.807311    8.451613    0.000000    1.485000
   286  Cl    c     8.807837   16.021271    0.442675    0.000000    1.485000
   287  Cl    c    -5.844511    3.048393    8.403557    0.000000    1.485000
   288  Cl    c    -2.273526    5.182711   -5.803763    0.000000    1.485000
   289  Sc    c    14.050504   -4.033223    9.045510    0.000000    3.000000
   290  Cl    c    18.417413    3.971249    1.661149    0.000000    1.485000
   291  Sc    c    17.780202    8.609079    1.854527    0.000000    3.000000
   292  Cl    c    13.808980    5.342752   13.853573    0.000000    1.485000
   293  Cl    c    -2.617717   10.904296   -2.989305    0.000000    1.485000
   294  Cl    c     4.212995    8.332771   15.843093    0.000000    1.485000
   295  Cl    c     5.863656   -6.646838   -2.986134    0.000000    1.485000
   296  Cl    c    14.795634   -5.007068    3.027310    0.000000    1.485000
   297  Cl    c     5.977103   14.653793   11.252948    0.000000    1.485000
   298  Cl    c    14.457102    7.936640   -4.958648    0.000000    1.485000
   299  Cl    c    11.717473   15.578059    5.054283    0.000000    1.485000
   300  Sc    c    18.730633    5.458323    3.658824    0.000000    3.000000
   301  Cl    c    13.739498   -5.512506    7.043005    0.000000    1.485000
   302  Sc    c    13.072866   13.552647    9.065268    0.000000    3.000000
   303  Cl    c     1.593745   -7.780229    1.602466    0.000000    1.485000
   304  Sc    c     5.575873   17.144912    3.643018    0.000000    3.000000
   305  Cl    c    -5.189294   -1.587024    0.392233    0.000000    1.485000
   306  Cl    c     0.262792    8.692253   14.660158    0.000000    1.485000
   307  Cl    c    -4.065183    7.532673   -3.797180    0.000000    1.485000
   308  Cl    c     5.933325   -3.016771   14.638975    0.000000    1.485000
   309  Sc    c    14.944820    7.236340   12.663867    0.000000    3.000000
   310  Cl    c     0.274742   15.926708    3.823766    0.000000    1.485000
   311  Cl    c    17.031775    9.586901    7.862484    0.000000    1.485000
   312  Cl    c    11.594904   -7.523776    3.828146    0.000000    1.485000
   313  Sc    c    15.936557    0.492772   -3.570287    0.000000    3.000000
   314  Sc    c     4.622950   16.684152    7.243114    0.000000    3.000000
   315  Cl    c     5.917016   11.419539   -6.988762    0.000000    1.485000
   316  Cl    c    11.598156   -0.276857   -6.998919    0.000000    1.485000
   317  Sc    c     0.912706   14.901026   -1.781310    0.000000    3.000000
   318  Cl    c    15.585075    2.599821   12.466516    0.000000    1.485000
   319  Cl    c     0.588500   13.417159   -3.781919    0.000000    1.485000
   320  Cl    c     6.263777    5.296543   -9.205621    0.000000    1.485000
   321  Sc    c     8.455607    4.089811   -9.002397    0.000000    3.000000
   322  Cl    c     1.336962   16.023708    0.421713    0.000000    1.485000
   323  Cl    c     4.147615   13.782931   -4.994971    0.000000    1.485000
   324  Cl    c    10.547733    2.846965   -8.386051    0.000000    1.485000
   325  Cl    c     7.706233    8.694113   -8.400247    0.000000    1.485000
   326  Cl    c    -5.445917    9.531000    7.815307    0.000000    1.485000
   327  Cl    c     3.031348   -8.021906    7.813377    0.000000    1.485000
   328  Cl    c     8.796645    5.193241   16.649067    0.000000    1.485000
   329  Cl    c    17.280096   -1.527216    0.438596    0.000000    1.485000
   330  Sc    c    -0.921808    6.775232   -7.201761    0.000000    3.000000
   331  Sc    c    -1.920128   13.535589    9.050684    0.000000    3.000000
   332  Cl    c    10.982179   11.194703   13.854240    0.000000    1.485000
   333  Sc    c    11.293165   -5.391200   -3.591563    0.000000    3.000000
   334  Cl    c    14.546731   13.337364   -0.349431    0.000000    1.485000
   335  Cl    c     0.541807   -7.889924    5.002112    0.000000    1.485000
   336  Cl    c    -0.180327    2.185433   -7.803345    0.000000    1.485000
   337  Sc    c    11.221914   -1.788038   14.446765    0.000000    3.000000
   338  Cl    c    -6.887696    6.164264    7.008097    0.000000    1.485000
   339  Cl    c    -2.625035    0.071344   13.214914    0.000000    1.485000
   340  Cl    c    14.445895   -2.898660   11.244561    0.000000    1.485000
   341  Cl    c    -4.460479   -0.815104   -3.004683    0.000000    1.485000
   342  Cl    c    16.302539   12.436436    5.865205    0.000000    1.485000
   343  Cl    c    -5.110154    0.199839   10.407700    0.000000    1.485000
   344  Cl    c     2.644838   -7.280773   -2.400542    0.000000    1.485000
   345  Cl    c    15.522395   -4.238598   -0.377491    0.000000    1.485000
   346  Cl    c    18.414524    0.361073    7.062338    0.000000    1.485000
   347  Cl    c     6.320867   16.163966   -2.369378    0.000000    1.485000
   348  Cl    c    -6.236431   -1.680974    3.780728    0.000000    1.485000
   349  Cl    c    -6.234330    1.927363   -1.619387    0.000000    1.485000
   350  Cl    c    -3.408858   -3.921775   -1.620577    0.000000    1.485000
   351  Cl    c    18.081440    6.478946    9.259444    0.000000    1.485000
   352  Cl    c    15.254299   12.330549    9.261484    0.000000    1.485000
   353  Cl    c    18.084169   10.089970    3.857376    0.000000    1.485000
   354  Sc    c     3.775804   -9.007882    1.800600    0.000000    3.000000
   355  Cl    c    12.764186   15.673801    1.664479    0.000000    1.485000
   356  Cl    c    -7.289892    1.422713    2.395238    0.000000    1.485000
   357  Cl    c    -4.463925   -4.426431    2.394572    0.000000    1.485000
   358  Cl    c    19.127214    6.584560    5.863920    0.000000    1.485000
   359  Cl    c    16.297465    8.824583   11.268136    0.000000    1.485000
   360  Cl    c    12.687132   -5.612216   10.437936    0.000000    1.485000
   361  Cl    c     1.300969    5.183252   16.656439    0.000000    1.485000
   362  Cl    c    10.532434   -8.023934    7.827450    0.000000    1.485000
   363  Cl    c    -0.777336   15.406822    7.839430    0.000000    1.485000
   364  Cl    c    11.982094    8.070869   -7.771361    0.000000    1.485000
   365  Cl    c    12.634231   -3.788578   -4.975628    0.000000    1.485000
   366  Cl    c    -0.452800    2.463256   15.842398    0.000000    1.485000
   367  Cl    c    -3.260943   11.930271   10.431947    0.000000    1.485000
   368  Cl    c     7.309466   -8.647786    8.427172    0.000000    1.485000
   369  Cl    c    10.147442   -7.260443   -2.379901    0.000000    1.485000
   370  Cl    c     2.437080   14.288794   12.451023    0.000000    1.485000
   371  Sc    c     0.953337    4.073613   -9.008810    0.000000    3.000000
   372  Cl    c    17.361237    0.262556   10.453994    0.000000    1.485000
   373  Cl    c     7.701820   -5.768178   13.241189    0.000000    1.485000
   374  Sc    c    14.952665   14.462433    1.855807    0.000000    3.000000
   375  Cl    c     4.141739   -0.676856   16.648685    0.000000    1.485000
   376  Cl    c    -0.783176   11.790797   13.240438    0.000000    1.485000
   377  Cl    c    16.647947   10.329111   -2.351458    0.000000    1.485000
   378  Cl    c    12.625866   -7.400324    0.427949    0.000000    1.485000
   379  Cl    c     9.932604   14.305010   12.468929    0.000000    1.485000
   380  Sc    c    14.067749    6.811486   -7.170006    0.000000    3.000000
   381  Sc    c    -6.584933    7.645748    9.015981    0.000000    3.000000
   382  Sc    c     4.729615   -8.547719   -1.798951    0.000000    3.000000
   383  Cl    c    19.469759    0.866322    3.049368    0.000000    1.485000
   384  Sc    c    12.117999   13.089820   12.665000    0.000000    3.000000
   385  Cl    c    11.708417    8.354003   15.859645    0.000000    1.485000
   386  Sc    c    18.725451    1.845052    9.062966    0.000000    3.000000
   387  Sc    c    13.068434    9.939285   14.468593    0.000000    3.000000
   388  Sc    c     3.742352   12.651617   -7.201752    0.000000    3.000000
   389  Sc    c     5.615273    9.953355   -9.003583    0.000000    3.000000
   390  Cl    c     5.264484    4.823745   17.852131    0.000000    1.485000
   391  Sc    c    -4.712511    1.328655   12.616190    0.000000    3.000000
   392  Sc    c    16.890623   -2.656927   -1.768594    0.000000    3.000000
   393  Cl    c    -6.892871    9.777826    1.607429    0.000000    1.485000
   394  Cl    c     0.215985    8.667085   -8.386694    0.000000    1.485000
   395  Cl    c    -2.227007   15.681900    1.623769    0.000000    1.485000
   396  Cl    c     5.869566   -3.031969   -8.387390    0.000000    1.485000
   397  Cl    c     9.114358   -0.546932   -9.216208    0.000000    1.485000
   398  Cl    c     5.985863   18.262413    5.848826    0.000000    1.485000
   399  Cl    c    11.634643   13.787778   -4.961524    0.000000    1.485000
   400  Sc    c    13.100114   -4.490862   12.645948    0.000000    3.000000
   401  Sc    c     7.446852    3.604637   18.052639    0.000000    3.000000
   402  Sc    c     3.783770   -1.782510   -9.009590    0.000000    3.000000
   403  Cl    c    -8.009809    4.263211    0.395109    0.000000    1.485000
   404  Sc    c    -6.582314   11.260887    3.611994    0.000000    3.000000
   405  Cl    c    -5.181211    2.025637   -5.007466    0.000000    1.485000
   406  Sc    c    -1.923555    9.913519   14.449951    0.000000    3.000000
   407  Cl    c    19.862203    7.347631    2.460175    0.000000    1.485000
   408  Sc    c     4.734325   -4.932006   -7.206272    0.000000    3.000000
   409  Sc    c    12.122920   16.703087    7.260745    0.000000    3.000000
   410  Sc    c    11.280665   -8.999655    1.816509    0.000000    3.000000
   411  Cl    c    17.035658   13.199283    2.459989    0.000000    1.485000
   412  Cl    c    -2.283668   -5.651313   10.407491    0.000000    1.485000
   413  Cl    c     2.650378   -3.666000   -7.802255    0.000000    1.485000
   414  Cl    c    15.527938   -0.625835   -5.775436    0.000000    1.485000
   415  Cl    c     3.493589   18.401517    3.033495    0.000000    1.485000
   416  Cl    c     2.439353   17.897680    7.049687    0.000000    1.485000
   417  Cl    c    -8.015259    0.655200    5.795729    0.000000    1.485000
   418  Cl    c    -2.358312   -3.825204   -5.009017    0.000000    1.485000
   419  Cl    c    19.857807    3.734240    7.861978    0.000000    1.485000
   420  Cl    c    -5.443633   13.143828    2.411982    0.000000    1.485000
   421  Cl    c     1.598460   -0.563725   -9.207466    0.000000    1.485000
   422  Cl    c     5.860205  -10.260861    2.409971    0.000000    1.485000
   423  Cl    c     5.971872   11.045013   16.655332    0.000000    1.485000
   424  Cl    c    17.283924    2.086540   -4.958609    0.000000    1.485000
   425  Cl    c    14.205724   15.438457    7.863571    0.000000    1.485000
   426  Sc    c    -5.597484   -2.710152   -1.814908    0.000000    3.000000
   427  Sc    c    15.895770    4.085623   14.466910    0.000000    3.000000
   428  Sc    c    -6.551849   -3.172510    1.785440    0.000000    3.000000
   429  Cl    c    -5.838143   10.281951   -2.398145    0.000000    1.485000
   430  Sc    c    -1.882627   -4.524394   12.615071    0.000000    3.000000
   431  Cl    c     2.386743   -3.401027   15.843482    0.000000    1.485000
   432  Cl    c     3.376857   -6.519565   -5.812703    0.000000    1.485000
   433  Cl    c     4.479515   -6.398945   13.847860    0.000000    1.485000
   434  Cl    c    -3.252351   15.541569    5.029510    0.000000    1.485000
   435  Cl    c    10.153445   -3.645170   -7.780079    0.000000    1.485000
   436  Cl    c     9.936511   17.916318    7.066690    0.000000    1.485000
   437  Cl    c    -5.190522   -5.195077    5.794448    0.000000    1.485000
   438  Cl    c    -2.360960   -7.434694    0.391892    0.000000    1.485000
   439  Cl    c    17.027400    5.974133   13.263761    0.000000    1.485000
   440  Cl    c    14.200779   11.825849   13.265048    0.000000    1.485000
   441  Cl    c    -6.163107   12.375088    5.818470    0.000000    1.485000
   442  Cl    c     9.861558   -3.369113   15.838984    0.000000    1.485000
   443  Cl    c    18.020265   -0.760449   -2.959013    0.000000    1.485000
   444  Cl    c     2.312996    5.658797  -10.396656    0.000000    1.485000
   445  Cl    c    14.808175    2.221271   -7.770699    0.000000    1.485000
   446  Cl    c     9.540592   16.789008   -2.961285    0.000000    1.485000
   447  Cl    c    -1.506445   14.646639   11.254371    0.000000    1.485000
   448  Sc    c    18.734339    9.070951   -1.745287    0.000000    3.000000
   449  Cl    c    13.372256   -6.641599   -2.972198    0.000000    1.485000
   450  Cl    c     9.803655    5.683433  -10.385303    0.000000    1.485000
   451  Sc    c    13.077233   17.165236    3.661111    0.000000    3.000000
   452  Cl    c     2.053039   16.776917   -2.982153    0.000000    1.485000
   453  Cl    c    -5.452026    5.919780   13.214425    0.000000    1.485000
   454  Cl    c     0.202390   -5.782119   13.215054    0.000000    1.485000
   455  Cl    c    11.619987   -0.655321   16.645572    0.000000    1.485000
   456  Cl    c    17.273896   -5.136376    5.841050    0.000000    1.485000
   457  Sc    c    11.238597   12.665397   -7.171825    0.000000    3.000000
   458  Cl    c    -7.283714    5.034398   -3.005387    0.000000    1.485000
   459  Cl    c    -6.174265    8.765303   11.219940    0.000000    1.485000
   460  Sc    c    20.606328    2.755856    1.852853    0.000000    3.000000
   461  Cl    c    -1.631864   -6.665109   -3.006479    0.000000    1.485000
   462  Cl    c    14.534415    2.502046   15.858268    0.000000    1.485000
   463  Cl    c    -1.231183    5.289331   -9.197689    0.000000    1.485000
   464  Cl    c    18.015793   -4.378023    2.439008    0.000000    1.485000
   465  Cl    c    19.132237   10.196474    0.461198    0.000000    1.485000
   466  Cl    c    19.473446    4.478199   -2.352176    0.000000    1.485000
   467  Cl    c    13.473167   14.675911   11.269735    0.000000    1.485000
   468  Cl    c     5.139769   -0.193262  -10.396755    0.000000    1.485000
   469  Cl    c     6.713178   19.025450    2.441122    0.000000    1.485000
   470  Cl    c    -7.927201    9.666822    5.005058    0.000000    1.485000
   471  Cl    c    -0.186706   -8.651928    8.408563    0.000000    1.485000
   472  Cl    c     3.426341   11.159304   -9.192249    0.000000    1.485000
   473  Cl    c    -9.061446    4.167859    3.785047    0.000000    1.485000
   474  Cl    c    -4.398551    2.819100   14.608501    0.000000    1.485000
   475  Sc    c    -6.547188    0.440836   -3.619333    0.000000    3.000000
   476  Cl    c    -3.407981   -7.531319    3.782019    0.000000    1.485000
   477  Cl    c    -1.567397   -3.029960   14.605910    0.000000    1.485000
   478  Cl    c    -3.401680   -0.310694   -7.020916    0.000000    1.485000
   479  Cl    c    -4.390369   13.650300   -1.598452    0.000000    1.485000
   480  Cl    c    15.251246    8.719742   14.662901    0.000000    1.485000
   481  Cl    c    20.911195    4.238789    3.855376    0.000000    1.485000
   482  Cl    c    13.408290   -2.998060   14.639123    0.000000    1.485000
   483  Cl    c    16.234869   -5.244187    9.236613    0.000000    1.485000
   484  Cl    c    -1.561796   11.409207   -6.999399    0.000000    1.485000
   485  Cl    c     4.929001   14.552546   14.648731    0.000000    1.485000
   486  Cl    c    15.257975   15.941458    3.858750    0.000000    1.485000
   487  Cl    c     4.932673   18.159295    9.245493    0.000000    1.485000
   488  Cl    c    18.421053    7.583071   -3.742098    0.000000    1.485000
   489  Cl    c     6.914106   -9.759815   -1.603045    0.000000    1.485000
   490  Cl    c     6.917502   -6.145865   -7.005650    0.000000    1.485000
   491  Cl    c    16.246629    5.590874   -6.965770    0.000000    1.485000
   492  Cl    c    13.417894   11.442056   -6.965003    0.000000    1.485000
   493  Sc    c    17.771529    1.382528   12.662662    0.000000    3.000000
   494  Sc    c    -8.426416   -0.468898    3.591219    0.000000    3.000000
   495  Cl    c    20.196650    1.634352   -0.352994    0.000000    1.485000
   496  Sc    c    -1.913513   17.147336    3.642851    0.000000    3.000000
   497  Cl    c     8.088307   -1.026270   17.851602    0.000000    1.485000
   498  Sc    c    11.296234   -1.773790   -8.995772    0.000000    3.000000
   499  Cl    c    10.991870   18.421381    3.052588    0.000000    1.485000
   500  Cl    c    -3.002819    8.038463   -7.794803    0.000000    1.485000
   501  Cl    c    -4.060882   -3.299433   12.410704    0.000000    1.485000
   502  Cl    c     3.368384  -10.127479   -0.404677    0.000000    1.485000
   503  Sc    c    16.882366   -6.269211    3.638147    0.000000    3.000000
   504  Cl    c    -7.289432   -2.187507    7.797475    0.000000    1.485000
   505  Cl    c    -4.001431   14.783774    8.431502    0.000000    1.485000
   506  Sc    c    -4.702726   12.171880   -3.601116    0.000000    3.000000
   507  Sc    c    15.927871   -6.730580    7.236494    0.000000    3.000000
   508  Cl    c    19.122497    2.972400   11.266480    0.000000    1.485000
   509  Cl    c    -1.170316   16.156258   -2.376691    0.000000    1.485000
   510  Sc    c     4.617939    9.456860   18.053824    0.000000    3.000000
   511  Cl    c    10.876866   -6.504092   -5.794657    0.000000    1.485000
   512  Cl    c    13.757181    5.323663   -9.164883    0.000000    1.485000
   513  Cl    c     8.054658    2.959218  -11.198403    0.000000    1.485000
   514  Sc    c    -2.867911   13.055920   12.642329    0.000000    3.000000
   515  Sc    c    12.230110   -8.530934   -1.776996    0.000000    3.000000
   516  Sc    c    -7.531737   10.795767    7.211459    0.000000    3.000000
   517  Cl    c     9.530905    2.344072   18.648635    0.000000    1.485000
   518  Cl    c     2.300681   -8.788758   11.215268    0.000000    1.485000
   519  Cl    c     6.703588    8.195475   18.648959    0.000000    1.485000
   520  Cl    c     5.126299  -11.027294    5.810351    0.000000    1.485000
   521  Cl    c    15.595203   13.433783   -3.739774    0.000000    1.485000
   522  Sc    c    -0.051726    3.588054   18.053322    0.000000    3.000000
   523  Cl    c    16.636436   -0.507872   13.857231    0.000000    1.485000
   524  Sc    c     9.395739   -9.912973    9.034619    0.000000    3.000000
   525  Cl    c     2.036086    2.328454   18.640179    0.000000    1.485000
   526  Cl    c     9.791663   -8.772673   11.231240    0.000000    1.485000
   527  Cl    c     8.888419   17.818184   10.458894    0.000000    1.485000
   528  Sc    c    -8.422130    3.143730   -1.812619    0.000000    3.000000
   529  Cl    c    -7.934173    6.055177   10.406432    0.000000    1.485000
   530  Cl    c    15.516207   -7.849464    5.029169    0.000000    1.485000
   531  Cl    c     2.642056  -10.889814    3.003424    0.000000    1.485000
   532  Cl    c     9.154237   13.923113   -7.775804    0.000000    1.485000
   533  Sc    c    -9.376886    2.681585    1.787051    0.000000    3.000000
   534  Cl    c    -6.891353    2.549826   12.413413    0.000000    1.485000
   535  Sc    c    -3.719459   -5.412402   -3.618981    0.000000    3.000000
   536  Cl    c    16.582841   -4.138054   -3.768480    0.000000    1.485000
   537  Sc    c    -3.757816   -1.820828   14.417159    0.000000    3.000000
   538  Sc    c     1.898144   -9.917698    9.013264    0.000000    3.000000
   539  Cl    c    10.928900   11.172940   -9.164890    0.000000    1.485000
   540  Sc    c    -5.597475   -6.321383    3.590339    0.000000    3.000000
   541  Cl    c    20.192539   -1.976368    5.049380    0.000000    1.485000
   542  Cl    c     6.313347    1.713324   19.244897    0.000000    1.485000
   543  Sc    c    -2.862072   16.673300    7.234939    0.000000    3.000000
   544  Sc    c    12.236476   -4.914702   -7.185048    0.000000    3.000000
   545  Cl    c    12.756401    4.842694   17.870038    0.000000    1.485000
   546  Cl    c    13.820577   16.178912   -2.350622    0.000000    1.485000
   547  Cl    c     4.231041   19.169781   -0.365055    0.000000    1.485000
   548  Cl    c    -3.274144    8.317852   15.831761    0.000000    1.485000
   549  Cl    c    10.137463  -10.876633    3.017214    0.000000    1.485000
   550  Sc    c    15.907973   14.923445   -1.743530    0.000000    3.000000
   551  Cl    c    -4.006518   11.162363   13.827662    0.000000    1.485000
   552  Cl    c    10.862667  -10.111883   -0.389422    0.000000    1.485000
   553  Cl    c     1.658672   13.910282   -7.792088    0.000000    1.485000
   554  Cl    c     5.219277    8.818591  -11.199561    0.000000    1.485000
   555  Cl    c    11.967677   -6.378346   13.843805    0.000000    1.485000
   556  Sc    c    13.118384    9.962701   -8.970759    0.000000    3.000000
   557  Sc    c     7.458768   18.059199   -3.564824    0.000000    3.000000
   558  Cl    c     1.397256   17.798450   10.443786    0.000000    1.485000
   559  Cl    c     2.434261   10.672706   17.854474    0.000000    1.485000
   560  Cl    c     0.602972   -1.041140   17.835419    0.000000    1.485000
   561  Cl    c     6.257992   -9.133116   12.430085    0.000000    1.485000
   562  Sc    c    16.893385    0.958821   -7.168063    0.000000    3.000000
   563  Sc    c    20.602243   -0.855630    7.256298    0.000000    3.000000
   564  Sc    c     2.782903   -2.261878   18.046893    0.000000    3.000000
   565  Sc    c     6.570093   -7.662945   14.439019    0.000000    3.000000
   566  Cl    c    19.464223   -2.745509    8.450288    0.000000    1.485000
   567  Cl    c     8.884207   14.205772   15.859030    0.000000    1.485000
   568  Cl    c    -3.335689   13.749598   -4.991704    0.000000    1.485000
   569  Cl    c     3.485782    7.562238   19.243059    0.000000    1.485000
   570  Cl    c    15.201486    8.703611   -8.358499    0.000000    1.485000
   571  Cl    c     9.930295   10.692857   17.869673    0.000000    1.485000
   572  Cl    c    -7.679280   -1.447224   -2.418762    0.000000    1.485000
   573  Cl    c    -6.950847   -4.296279   -0.420238    0.000000    1.485000
   574  Cl    c     7.055488   16.930114   -5.767096    0.000000    1.485000
   575  Cl    c    -8.665798    8.903518    8.404733    0.000000    1.485000
   576  Cl    c     0.556165    2.946069  -11.209212    0.000000    1.485000
   577  Cl    c    -1.499093   18.259659    5.848329    0.000000    1.485000
   578  Sc    c     2.746317   15.777797   14.453300    0.000000    3.000000
   579  Cl    c    13.377240   -3.025165   -8.375727    0.000000    1.485000
   580  Cl    c     6.975076   11.537647  -10.385995    0.000000    1.485000
   581  Cl    c     4.881813   14.536202   -8.390141    0.000000    1.485000
   582  Cl    c    -8.732047   -1.950552    1.588971    0.000000    1.485000
   583  Sc    c    -1.870217    9.927516   -9.002259    0.000000    3.000000
   584  Cl    c    -4.452336    2.799448   -8.408082    0.000000    1.485000
   585  Cl    c    -1.626661   -3.054556   -8.407209    0.000000    1.485000
   586  Sc    c    17.783835   12.221085   -3.548455    0.000000    3.000000
   587  Cl    c    16.307075   16.048074    0.462502    0.000000    1.485000
   588  Cl    c    13.479380   18.287535    5.866974    0.000000    1.485000
   589  Cl    c    -5.843053   -0.562332   13.808467    0.000000    1.485000
   590  Cl    c    -5.097936   11.039279   -5.801772    0.000000    1.485000
   591  Sc    c     5.573162    6.308466   19.855836    0.000000    3.000000
   592  Cl    c    16.574705   -7.749299    1.636029    0.000000    1.485000
   593  Sc    c    10.272161   -2.246480   18.047469    0.000000    3.000000
   594  Cl    c     4.422874  -10.023476   -3.801003    0.000000    1.485000
   595  Cl    c    -2.230414    4.808102   17.841224    0.000000    1.485000
   596  Cl    c     9.083670  -11.381962    7.026528    0.000000    1.485000
   597  Cl    c    14.794291   -8.617677    8.435789    0.000000    1.485000
   598  Cl    c     1.390323   14.188392   15.842231    0.000000    1.485000
   599  Sc    c    15.946122    4.108741   -8.971781    0.000000    3.000000
   600  Sc    c     4.630945   20.297092    1.839853    0.000000    3.000000
   601  Sc    c    -5.587305    0.905814   -7.217526    0.000000    3.000000
   602  Sc    c    21.556476   -0.393752    3.657000    0.000000    3.000000
   603  Cl    c    -1.519227   11.035551   16.650311    0.000000    1.485000
   604  Cl    c    13.361498  -10.254889    2.421998    0.000000    1.485000
   605  Sc    c    10.243428   15.793943   14.468795    0.000000    3.000000
   606  Cl    c    -0.773701   19.022563    2.434864    0.000000    1.485000
   607  Cl    c    -9.059306    0.560986    9.187091    0.000000    1.485000
   608  Cl    c    12.640462   -0.175628  -10.382029    0.000000    1.485000
   609  Cl    c    -6.236035   -5.292014    9.185952    0.000000    1.485000
   610  Cl    c    -9.054951    7.779708   -1.614808    0.000000    1.485000
   611  Cl    c    -7.220195   12.277972    9.210815    0.000000    1.485000
   612  Sc    c    -7.538372    7.181932   12.615529    0.000000    3.000000
   613  Cl    c    -6.225969    5.539302   -7.019369    0.000000    1.485000
   614  Cl    c    18.078835    2.868479   14.660928    0.000000    1.485000
   615  Cl    c    20.907616    0.627462    9.257744    0.000000    1.485000
   616  Cl    c    -0.576995   -9.770750   -1.619915    0.000000    1.485000
   617  Cl    c     7.758950    5.092968   20.046442    0.000000    1.485000
   618  Cl    c     4.085560  -11.128040    9.201914    0.000000    1.485000
   619  Cl    c    -0.575450   -6.161304   -7.020532    0.000000    1.485000
   620  Cl    c    12.425360   14.571360   14.664705    0.000000    1.485000
   621  Cl    c    20.914294    7.849540   -1.547079    0.000000    1.485000
   622  Cl    c    12.428882   18.182443    9.262599    0.000000    1.485000
   623  Cl    c    19.071582   -3.871993   -1.567928    0.000000    1.485000
   624  Cl    c    18.088568   13.701587   -1.545057    0.000000    1.485000
   625  Cl    c     4.093044    3.317725  -12.403430    0.000000    1.485000
   626  Sc    c     2.750936   19.387403    9.050543    0.000000    3.000000
[...]
   1347 z         13.303912     13.301585    -0.002327    Cartesian   -0.02
   1348 x         -2.465815     -2.463065     0.002750    Cartesian   -0.11
   1348 y         -0.385162     -0.387260    -0.002098    Cartesian    0.54
   1348 z        -10.465921    -10.462133     0.003788    Cartesian   -0.04
   1349 x         -6.284346     -6.279035     0.005311    Cartesian   -0.08
   1349 y         15.818233     15.814387    -0.003846    Cartesian   -0.02
   1349 z          0.361586      0.361669     0.000083    Cartesian    0.02
   1350 x         -2.717383     -2.715769     0.001615    Cartesian   -0.06
   1350 y         18.132352     18.129619    -0.002734    Cartesian   -0.02
   1350 z          9.087048      9.092726     0.005678    Cartesian    0.06
   1351 x         -0.320897     -0.317420     0.003476    Cartesian   -1.08
   1351 y         17.086905     17.083332    -0.003573    Cartesian   -0.02
   1351 z         -5.731998     -5.728298     0.003700    Cartesian   -0.06
   1352 x          7.527466      7.528422     0.000956    Cartesian    0.01
   1352 y          5.854125      5.854040    -0.000085    Cartesian   -0.00
   1352 z        -13.230152    -13.224018     0.006134    Cartesian   -0.05
   1353 x         14.249488     14.250711     0.001223    Cartesian    0.01
   1353 y         -6.146230     -6.149037    -0.002807    Cartesian    0.05
   1353 z         -7.130587     -7.124653     0.005934    Cartesian   -0.08
   1354 x         -3.787343     -3.787937    -0.000594    Cartesian    0.02
   1354 y         18.428020     18.433901     0.005881    Cartesian    0.03
   1354 z          2.984511      2.995646     0.011135    Cartesian    0.37
   1355 x         -0.625161     -0.622690     0.002471    Cartesian   -0.40
   1355 y         11.337199     11.335132    -0.002067    Cartesian   -0.02
   1355 z        -10.447199    -10.443346     0.003852    Cartesian   -0.04
   1356 x         10.986790     10.996070     0.009280    Cartesian    0.08
   1356 y         -2.710643     -2.719016    -0.008373    Cartesian    0.31
   1356 z        -11.140848    -11.139242     0.001606    Cartesian   -0.01
   1357 x         22.150129     22.144890    -0.005239    Cartesian   -0.02
   1357 y          9.916272      9.917911     0.001639    Cartesian    0.02
   1357 z          5.121064      5.119936    -0.001128    Cartesian   -0.02
   1358 x         11.167881     11.168134     0.000253    Cartesian    0.00
   1358 y         17.639833     17.637927    -0.001906    Cartesian   -0.01
   1358 z         13.308370     13.305293    -0.003078    Cartesian   -0.02
   1359 x         18.687244     18.685294    -0.001950    Cartesian   -0.01
   1359 y         14.869214     14.866008    -0.003206    Cartesian   -0.02
   1359 z          8.434666      8.430352    -0.004314    Cartesian   -0.05
   1360 x          0.115770      0.115460    -0.000310    Cartesian   -0.27
   1360 y         19.503662     19.497330    -0.006332    Cartesian   -0.03
   1360 z         -1.720251     -1.718413     0.001837    Cartesian   -0.11
   1361 x         11.427018     11.423258    -0.003760    Cartesian   -0.03
   1361 y          3.317940      3.316633    -0.001307    Cartesian   -0.04
   1361 z        -12.532007    -12.526774     0.005233    Cartesian   -0.04
   1362 x          8.368497      8.368066    -0.000430    Cartesian   -0.01
   1362 y         20.703884     20.699097    -0.004787    Cartesian   -0.02
   1362 z          8.420402      8.416400    -0.004003    Cartesian   -0.05
   1363 x          2.945363      2.943200    -0.002163    Cartesian   -0.07
   1363 y         17.263145     17.256241    -0.006904    Cartesian   -0.04
   1363 z         -7.124643     -7.121850     0.002793    Cartesian   -0.04
   1364 x          8.600987      8.596389    -0.004598    Cartesian   -0.05
   1364 y          9.170284      9.166952    -0.003332    Cartesian   -0.04
   1364 z        -12.530521    -12.525334     0.005188    Cartesian   -0.04
   1365 x         20.316598     20.311209    -0.005389    Cartesian   -0.03
   1365 y          5.417564      5.419863     0.002298    Cartesian    0.04
   1365 z         -5.703470     -5.701792     0.001678    Cartesian   -0.03
   1366 x         -6.721068     -6.721816    -0.000747    Cartesian    0.01
   1366 y         13.401438     13.402250     0.000812    Cartesian    0.01
   1366 z         -3.650180     -3.651415    -0.001235    Cartesian    0.03
   1367 x         21.409142     21.405026    -0.004116    Cartesian   -0.02
   1367 y          1.749771      1.748336    -0.001436    Cartesian   -0.08
   1367 z         -3.605903     -3.601953     0.003950    Cartesian   -0.11
   1368 x         -4.002203     -4.003730    -0.001526    Cartesian    0.04
   1368 y         -6.357817     -6.359795    -0.001978    Cartesian    0.03
   1368 z         -5.769442     -5.769579    -0.000137    Cartesian    0.00
   1369 x        -10.291120    -10.293593    -0.002474    Cartesian    0.02
   1369 y          4.447469      4.447280    -0.000188    Cartesian   -0.00
   1369 z         -2.454353     -2.453002     0.001352    Cartesian   -0.06
   1370 x         13.990351     13.990324    -0.000027    Cartesian   -0.00
   1370 y          8.175662      8.174158    -0.001504    Cartesian   -0.02
   1370 z         18.709790     18.706469    -0.003321    Cartesian   -0.02
   1371 x         -1.079689     -1.077002     0.002687    Cartesian   -0.25
   1371 y         -9.138729     -9.135432     0.003297    Cartesian   -0.04
   1371 z         12.555566     12.552855    -0.002711    Cartesian   -0.02
   1372 x         10.420273     10.422714     0.002441    Cartesian    0.02
   1372 y         -0.778315     -0.776128     0.002187    Cartesian   -0.28
   1372 z         19.905638     19.901137    -0.004500    Cartesian   -0.02
   1373 x        -11.391314    -11.392980    -0.001666    Cartesian    0.01
   1373 y          3.919594      3.919972     0.000378    Cartesian    0.01
   1373 z          1.735490      1.732801    -0.002689    Cartesian   -0.15
   1374 x         -8.132122     -8.128319     0.003803    Cartesian   -0.05
   1374 y         -3.127781     -3.128698    -0.000917    Cartesian    0.03
   1374 z         11.148676     11.146101    -0.002575    Cartesian   -0.02
   1375 x         16.746019     16.742443    -0.003575    Cartesian   -0.02
   1375 y         -0.508419     -0.507668     0.000752    Cartesian   -0.15
   1375 z         -9.026045     -9.023266     0.002779    Cartesian   -0.03
   1376 x          4.768210      4.767710    -0.000500    Cartesian   -0.01
   1376 y         10.926373     10.923413    -0.002960    Cartesian   -0.03
   1376 z         19.908610     19.905952    -0.002658    Cartesian   -0.01
   1377 x         18.909050     18.901815    -0.007235    Cartesian   -0.04
   1377 y         -7.499866     -7.498617     0.001249    Cartesian   -0.02
   1377 z          3.692461      3.694147     0.001686    Cartesian    0.05
   1378 x         20.413081     20.410208    -0.002872    Cartesian   -0.01
   1378 y          8.488996      8.486718    -0.002278    Cartesian   -0.03
   1378 z         12.623024     12.623433     0.000410    Cartesian    0.00
   1379 x         -6.835357     -6.835758    -0.000401    Cartesian    0.01
   1379 y         -7.729127     -7.730800    -0.001673    Cartesian    0.02
   1379 z          5.037857      5.036613    -0.001244    Cartesian   -0.02
   1380 x         -8.461150     -8.461842    -0.000692    Cartesian    0.01
   1380 y          5.334350      5.331839    -0.002510    Cartesian   -0.05
   1380 z         13.773087     13.768743    -0.004344    Cartesian   -0.03
   1381 x          0.356655      0.357365     0.000709    Cartesian    0.20
   1381 y         -9.849332     -9.846758     0.002575    Cartesian   -0.03
   1381 z         -5.064500     -5.062873     0.001628    Cartesian   -0.03
   1382 x         17.808882     17.802912    -0.005971    Cartesian   -0.03
   1382 y         -8.027733     -8.025477     0.002256    Cartesian   -0.03
   1382 z          7.882284      7.877234    -0.005050    Cartesian   -0.06
   1383 x          4.327982      4.329638     0.001655    Cartesian    0.04
   1383 y          4.897789      4.897169    -0.000620    Cartesian   -0.01
   1383 z         21.299769     21.295699    -0.004070    Cartesian   -0.02
   1384 x          1.090465      1.093249     0.002784    Cartesian    0.26
   1384 y         -8.906523     -8.903254     0.003269    Cartesian   -0.04
   1384 z         14.468260     14.464667    -0.003593    Cartesian   -0.02
   1385 x         14.013437     14.012001    -0.001436    Cartesian   -0.01
   1385 y          1.775544      1.774425    -0.001119    Cartesian   -0.06
   1385 z         19.223243     19.218021    -0.005222    Cartesian   -0.03
   1386 x         18.916173     18.909547    -0.006625    Cartesian   -0.04
   1386 y         -0.276213     -0.277257    -0.001045    Cartesian    0.38
   1386 z         -7.113352     -7.107711     0.005641    Cartesian   -0.08
   1387 x         -4.635496     -4.636772    -0.001276    Cartesian    0.03
   1387 y         -3.645392     -3.644272     0.001120    Cartesian   -0.03
   1387 z         -7.860232     -7.856802     0.003430    Cartesian   -0.04
   1388 x          4.778894      4.778036    -0.000858    Cartesian   -0.02
   1388 y         21.761853     21.754547    -0.007306    Cartesian   -0.03
   1388 z          3.699891      3.700309     0.000418    Cartesian    0.01
   1389 x         -7.387629     -7.383300     0.004329    Cartesian   -0.06
   1389 y          8.650509      8.650089    -0.000419    Cartesian   -0.00
   1389 z         14.472718     14.467644    -0.005074    Cartesian   -0.04
   1390 x          6.749650      6.751304     0.001655    Cartesian    0.02
   1390 y        -13.387557    -13.381082     0.006475    Cartesian   -0.05
   1390 z          3.659475      3.657673    -0.001802    Cartesian   -0.05
   1391 x         -3.891476     -3.892351    -0.000875    Cartesian    0.02
   1391 y         11.160921     11.157426    -0.003495    Cartesian   -0.03
   1391 z         -9.054572     -9.052779     0.001793    Cartesian   -0.02
   1392 x         17.839091     17.837883    -0.001207    Cartesian   -0.01
   1392 y         -7.204198     -7.199134     0.005064    Cartesian   -0.07
   1392 z         -2.410076     -2.407333     0.002744    Cartesian   -0.11
   1393 x         10.438079     10.433180    -0.004899    Cartesian   -0.05
   1393 y         17.280818     17.272650    -0.008169    Cartesian   -0.05
   1393 z         -7.108893     -7.103508     0.005385    Cartesian   -0.08
   1394 x         -9.554222     -9.547592     0.006630    Cartesian   -0.07
   1394 y         12.030128     12.030152     0.000024    Cartesian    0.00
   1394 z          7.157119      7.153101    -0.004018    Cartesian   -0.06
   1395 x          3.678726      3.678531    -0.000195    Cartesian   -0.01
   1395 y         21.233986     21.227436    -0.006550    Cartesian   -0.03
   1395 z          7.889714      7.887158    -0.002556    Cartesian   -0.03
   1396 x         -2.476498     -2.475419     0.001080    Cartesian   -0.04
   1396 y        -11.220642    -11.217741     0.002901    Cartesian   -0.03
   1396 z          5.742798      5.741729    -0.001069    Cartesian   -0.02
   1397 x         -6.295030     -6.291518     0.003512    Cartesian   -0.06
   1397 y          4.982753      4.981667    -0.001087    Cartesian   -0.02
   1397 z         16.570304     16.565870    -0.004435    Cartesian   -0.03
   1398 x          0.653798      0.654141     0.000343    Cartesian    0.05
   1398 y        -11.323280    -11.323428    -0.000148    Cartesian    0.00
   1398 z         10.456513     10.456101    -0.000412    Cartesian   -0.00
   1399 x         -2.157989     -2.153676     0.004313    Cartesian   -0.20
   1399 y          8.976370      8.972867    -0.003503    Cartesian   -0.04
   1399 z        -11.153626    -11.147694     0.005932    Cartesian   -0.05
   1400 x         22.146568     22.140375    -0.006193    Cartesian   -0.03
   1400 y          6.304446      6.307090     0.002644    Cartesian    0.04
   1400 z         10.523970     10.522375    -0.001595    Cartesian   -0.02
   1401 x         -7.380507     -7.377567     0.002940    Cartesian   -0.04
   1401 y         15.874162     15.870266    -0.003896    Cartesian   -0.02
   1401 z          3.666906      3.665135    -0.001771    Cartesian   -0.05
   1402 x         18.683683     18.681782    -0.001901    Cartesian   -0.01
   1402 y         11.257388     11.253808    -0.003580    Cartesian   -0.03
   1402 z         13.837572     13.831907    -0.005665    Cartesian   -0.04
   1403 x          9.005350      9.005099    -0.000252    Cartesian   -0.00
   1403 y         21.603286     21.600665    -0.002621    Cartesian   -0.01
   1403 z          5.108286      5.108207    -0.000079    Cartesian   -0.00
   1404 x          6.760333      6.757808    -0.002525    Cartesian   -0.04
   1404 y         -2.552077     -2.551059     0.001018    Cartesian   -0.04
   1404 z        -12.549243    -12.544966     0.004278    Cartesian   -0.03
   1405 x         21.516836     21.514432    -0.002405    Cartesian   -0.01
   1405 y         12.628697     12.626334    -0.002363    Cartesian   -0.02
   1405 z          3.030274      3.027840    -0.002434    Cartesian   -0.08
   1406 x         19.324098     19.320186    -0.003911    Cartesian   -0.02
   1406 y         15.768616     15.768582    -0.000034    Cartesian   -0.00
   1406 z          5.122550      5.121669    -0.000881    Cartesian   -0.02
   1407 x          2.608740      2.607530    -0.001210    Cartesian   -0.05
   1407 y         21.529646     21.525095    -0.004551    Cartesian   -0.02
   1407 z          1.787198      1.787790     0.000592    Cartesian    0.03
   1408 x         -4.887537     -4.881595     0.005942    Cartesian   -0.12
   1408 y         17.900146     17.899474    -0.000672    Cartesian   -0.00
   1408 z          7.174354      7.172008    -0.002346    Cartesian   -0.03
   1409 x         -8.568844     -8.568289     0.000555    Cartesian   -0.01
   1409 y         -5.544576     -5.542741     0.001836    Cartesian   -0.03
   1409 z          7.136911      7.133899    -0.003012    Cartesian   -0.04
   1410 x         12.079334     12.080508     0.001174    Cartesian    0.01
   1410 y         -6.378437     -6.372761     0.005676    Cartesian   -0.09
   1410 z         -9.043281     -9.041165     0.002116    Cartesian   -0.02
   1411 x          1.108271      1.106347    -0.001923    Cartesian   -0.17
   1411 y          9.152611      9.148373    -0.004238    Cartesian   -0.05
   1411 z        -12.546271    -12.540227     0.006044    Cartesian   -0.05
   1412 x         23.242673     23.238971    -0.003702    Cartesian   -0.02
   1412 y          6.248479      6.245826    -0.002653    Cartesian   -0.04
   1412 z          7.218631      7.220082     0.001450    Cartesian    0.02
   1413 x          7.852933      7.850150    -0.002782    Cartesian   -0.04
   1413 y         -6.219832     -6.217880     0.001952    Cartesian   -0.03
   1413 z        -10.451657    -10.448206     0.003451    Cartesian   -0.03
   1414 x         17.587050     17.584043    -0.003007    Cartesian   -0.02
   1414 y         14.341340     14.337802    -0.003538    Cartesian   -0.02
   1414 z         12.624510     12.625330     0.000820    Cartesian    0.01
   1415 x          9.346752      9.345133    -0.001620    Cartesian   -0.02
   1415 y         -4.094474     -4.093272     0.001202    Cartesian   -0.03
   1415 z         19.206007     19.202565    -0.003442    Cartesian   -0.02
   1416 x         13.905743     13.905997     0.000254    Cartesian    0.00
   1416 y         -9.103382     -9.098140     0.005242    Cartesian   -0.06
   1416 z         12.587066     12.585193    -0.001873    Cartesian   -0.01
   1417 x          0.875781      0.875075    -0.000706    Cartesian   -0.08
   1417 y         20.686211     20.681974    -0.004237    Cartesian   -0.02
   1417 z          8.404653      8.401804    -0.002849    Cartesian   -0.03
   1418 x          2.860781      2.862080     0.001299    Cartesian    0.05
   1418 y         -0.015892     -0.011769     0.004123    Cartesian  -25.94
   1418 z        -13.247388    -13.237591     0.009797    Cartesian   -0.07
   1419 x         -5.001826     -4.995789     0.006037    Cartesian   -0.12
   1419 y         -3.230419     -3.231159    -0.000740    Cartesian    0.02
   1419 z         15.862391     15.859085    -0.003306    Cartesian   -0.02
   1420 x         15.653475     15.650138    -0.003336    Cartesian   -0.02
   1420 y          3.159374      3.160271     0.000897    Cartesian    0.03
   1420 z        -11.123612    -11.119448     0.004164    Cartesian   -0.04
   1421 x         12.149697     12.146880    -0.002818    Cartesian   -0.02
   1421 y         -3.546699     -3.546338     0.000361    Cartesian   -0.01
   1421 z         18.691068     18.682764    -0.008305    Cartesian   -0.04
   1422 x          3.671604      3.670550    -0.001053    Cartesian   -0.03
   1422 y         14.010333     14.002391    -0.007941    Cartesian   -0.06
   1422 z         18.695527     18.683816    -0.011711    Cartesian   -0.06
   1423 x         10.101456     10.099306    -0.002150    Cartesian   -0.02
   1423 y         21.547319     21.541079    -0.006240    Cartesian   -0.03
   1423 z          1.802948      1.805723     0.002775    Cartesian    0.15
   1424 x          1.512634      1.517104     0.004469    Cartesian    0.30
   1424 y         21.585613     21.580511    -0.005102    Cartesian   -0.02
   1424 z          5.092537      5.092833     0.000297    Cartesian    0.01
   1425 x          5.683251      5.683482     0.000230    Cartesian    0.00
   1425 y         -9.480062     -9.473228     0.006834    Cartesian   -0.07
   1425 z         -7.845968     -7.838442     0.007526    Cartesian   -0.10
   1426 x         -0.642967     -0.642902     0.000065    Cartesian   -0.01
   1426 y         -6.721934     -6.719955     0.001979    Cartesian   -0.03
   1426 z         16.567332     16.562746    -0.004587    Cartesian   -0.03
   1427 x         15.742835     15.741907    -0.000928    Cartesian   -0.01
   1427 y         -0.992848     -0.991330     0.001518    Cartesian   -0.15
   1427 z         18.008694     18.006058    -0.002636    Cartesian   -0.01
   1428 x          7.845810      7.841081    -0.004729    Cartesian   -0.06
   1428 y        -13.443485    -13.437515     0.005970    Cartesian   -0.04
   1428 z          0.354155      0.353937    -0.000218    Cartesian   -0.06
--------------------------------------------------------------------------------


  Time to end of optimisation  =      511.4065 seconds


  Peak dynamic memory used =     298.14 MB 


  Timing analysis for GULP :

--------------------------------------------------------------------------------
  Task / Subroutine                                          Time (Seconds)
--------------------------------------------------------------------------------
  Calculation of reciprocal space energy and derivatives          0.0215
  Calculation of real space energy and derivatives                0.6604
  Calculation for region 1 energy and derivatives (2-b)         176.4395
  Calculation for region 2a energy                               94.3492
  Calculation for region 2b energy                                0.0180
  Calculation and manipulation of Hessian matrix                  0.1028
  Calculation of matrix inversion                               236.9914
  Symmetry generation of equivalent positions                     0.0003
--------------------------------------------------------------------------------
  Total CPU time                                                511.4065
--------------------------------------------------------------------------------


  Dump file written as ScCl3.grs



  **** GULP has completed with   2 warnings - beware! ****

  Job Finished at 18:53.23  7th February   2022                               

