********************************************************************************
*                       GENERAL UTILITY LATTICE PROGRAM                        *
*                                 Julian Gale                                  *
*                       Curtin Institute for Computation                       *
*                    School of Molecular and Life Sciences                     *
*                    Curtin University, Western Australia                      *
********************************************************************************
* Version = 5.2.0 * Last modified =   1st June 2020                            *
********************************************************************************
*  optimise     - perform optimisation run                                     *
*  conp         - constant pressure calculation                                *
*  property     - calculate properties for final geometry                      *
*  defect       - perform defect calculation after bulk run                    *
*  compare      - compare initial and final structures                         *
********************************************************************************

  Job Started  at 18:45.02  7th February   2022                               

  Number of CPUs =     1


  Total number of configurations input =      1

********************************************************************************
*  Input for Configuration =   1                                               *
********************************************************************************

  Formula = Sc2Cl6                                                      

  Number of irreducible atoms/shells =      14


  Total number atoms/shells =      14

  Dimensionality = 3               :  Bulk   



  Cartesian lattice vectors (Angstroms) :

        7.453000    0.000000    0.000000
        4.624520    5.844744    0.000000
        4.624520    2.237970    5.399307

  Cell parameters (Angstroms/Degrees):

  a =       7.4530    alpha =  51.6480
  b =       7.4530    beta  =  51.6480
  c =       7.4530    gamma =  51.6480

  Initial cell volume =         235.198534 Angs**3

  Temperature of configuration =   0.00     K 

  Pressure of configuration =         0.000 GPa 

  Fractional coordinates of asymmetric unit :

--------------------------------------------------------------------------------
   No.  Atomic       x           y          z         Charge      Occupancy
        Label      (Frac)      (Frac)     (Frac)        (e)         (Frac)  
--------------------------------------------------------------------------------
      1 Sc    c    0.333900    0.333900    0.333900     3.00000    1.000000    
      2 Sc    c    0.666100 *  0.666100 *  0.666100 *   3.00000    1.000000    
      3 Cl    c    0.073700 *  0.443900 *  0.705300 *   1.48500    1.000000    
      4 Cl    c    0.294700 *  0.926300 *  0.556100 *   1.48500    1.000000    
      5 Cl    c    0.443900 *  0.705300 *  0.073700 *   1.48500    1.000000    
      6 Cl    c    0.556100 *  0.294700 *  0.926300 *   1.48500    1.000000    
      7 Cl    c    0.705300 *  0.073700 *  0.443900 *   1.48500    1.000000    
      8 Cl    c    0.926300 *  0.556100 *  0.294700 *   1.48500    1.000000    
      9 Cl    s    0.073700 *  0.443900 *  0.705300 *  -2.48500    1.000000    
     10 Cl    s    0.294700 *  0.926300 *  0.556100 *  -2.48500    1.000000    
     11 Cl    s    0.443900 *  0.705300 *  0.073700 *  -2.48500    1.000000    
     12 Cl    s    0.556100 *  0.294700 *  0.926300 *  -2.48500    1.000000    
     13 Cl    s    0.705300 *  0.073700 *  0.443900 *  -2.48500    1.000000    
     14 Cl    s    0.926300 *  0.556100 *  0.294700 *  -2.48500    1.000000    
--------------------------------------------------------------------------------



********************************************************************************
*  General input information                                                   *
********************************************************************************

  Species output for all configurations : 

--------------------------------------------------------------------------------
  Species    Type    Atomic    Atomic    Charge       Radii (Angs)     Library
                     Number     Mass       (e)     Cova   Ionic  VDW   Symbol
--------------------------------------------------------------------------------
    Sc       Core       21      44.96   3.000000   1.440  0.000  2.150          
    Cl       Core       17      35.45   1.485000   0.990  0.000  1.650          
    Cl       Shell      17       0.00  -2.485000   0.990  0.000  1.650          
--------------------------------------------------------------------------------


  Lattice summation method               =    Ewald          (3-D)
                                         =    Parry          (2-D)
                                         =    Saunders et al (1-D)
  Accuracy factor for lattice sums       =   12.000


  Analytic derivatives to be used

  Time limit = Infinity

  Maximum range for interatomic potentials =    100000.000000 Angstroms

  General interatomic potentials :

--------------------------------------------------------------------------------
Atom  Types   Potential      Parameter       Value         Units   Cutoffs(Ang)
  1     2                                                            Min /  Max 
--------------------------------------------------------------------------------
Cl   c Cl   s Spring (c-s)  Spring k 2       36.070000    eV*Ang^-2 0.000  0.800
                            Spring k 4       0.0000000    eV*Ang^-4 
--------------------------------------------------------------------------------
Sc   c Cl   s Buckingham    Buckingham A     2456.2200    eV        0.000 12.000
                            Buckingham rho  0.31470000    Ang       
                            Buckingham C     0.0000000    eV*Ang^6  
--------------------------------------------------------------------------------
Cl   s Cl   s Buckingham    Buckingham A     1227.2000    eV        0.000 12.000
                            Buckingham rho  0.32100000    Ang       
                            Buckingham C     14.530000    eV*Ang^6  
--------------------------------------------------------------------------------

********************************************************************************
*  Output for configuration   1                                                *
********************************************************************************


  Components of energy : 

--------------------------------------------------------------------------------
  Interatomic potentials     =          10.39244711 eV    
  Monopole - monopole (real) =         -30.86300284 eV    
  Monopole - monopole (recip)=         -65.52201623 eV    
  Monopole - monopole (total)=         -96.38501907 eV    
--------------------------------------------------------------------------------
  Total lattice energy       =         -85.99257196 eV    
--------------------------------------------------------------------------------
  Total lattice energy       =           -8296.9687 kJ/(mole unit cells)
--------------------------------------------------------------------------------


  Number of variables =       45

  Maximum number of calculations  =          1000
  Maximum Hessian update interval =            10
  Maximum step size               =   1.000000000
  Maximum parameter tolerance     =   0.000010000
  Maximum function  tolerance     =   0.000010000
  Maximum gradient  tolerance     =   0.001000000
  Maximum gradient  component     =   0.010000000

  Symmetry not applied to optimisation

  Cell parameters to be optimised using strains

  Newton-Raphson optimiser to be used

  BFGS hessian update to be used

  Lower half triangular hessian to be used

  Start of bulk optimisation :

  Cycle:      0 Energy:       -85.992572  Gnorm:      8.922860  CPU:    0.021
  ** Hessian calculated **
  Cycle:      1 Energy:       -91.630693  Gnorm:      3.248521  CPU:    0.044
  ** Hessian calculated **
  Cycle:      2 Energy:       -93.407926  Gnorm:      0.241259  CPU:    0.070
  Cycle:      3 Energy:       -93.727483  Gnorm:      0.379189  CPU:    0.088
  Cycle:      4 Energy:       -93.872131  Gnorm:      0.419846  CPU:    0.106
  Cycle:      5 Energy:       -93.916106  Gnorm:      0.216759  CPU:    0.129
  Cycle:      6 Energy:       -93.955402  Gnorm:      0.236635  CPU:    0.152
  Cycle:      7 Energy:       -94.003608  Gnorm:      0.337075  CPU:    0.175
  Cycle:      8 Energy:       -94.063864  Gnorm:      0.300404  CPU:    0.197
  Cycle:      9 Energy:       -94.105073  Gnorm:      0.327302  CPU:    0.215
  Cycle:     10 Energy:       -94.152801  Gnorm:      0.172167  CPU:    0.238
  Cycle:     11 Energy:       -94.162078  Gnorm:      0.129678  CPU:    0.259
  ** Hessian calculated **
  Cycle:     12 Energy:       -94.184232  Gnorm:      0.042568  CPU:    0.292
  Cycle:     13 Energy:       -94.185870  Gnorm:      0.019064  CPU:    0.312
  Cycle:     14 Energy:       -94.186129  Gnorm:      0.004834  CPU:    0.333
  Cycle:     15 Energy:       -94.186171  Gnorm:      0.003759  CPU:    0.354


  **** Optimisation achieved ****


  Final energy =     -94.18617309 eV
  Final Gnorm  =       0.00026742

  Components of energy : 

--------------------------------------------------------------------------------
  Interatomic potentials     =          21.32396821 eV    
  Monopole - monopole (real) =          81.06426209 eV    
  Monopole - monopole (recip)=        -196.57440339 eV    
  Monopole - monopole (total)=        -115.51014130 eV    
--------------------------------------------------------------------------------
  Total lattice energy       =         -94.18617309 eV    
--------------------------------------------------------------------------------
  Total lattice energy       =           -9087.5259 kJ/(mole unit cells)
--------------------------------------------------------------------------------

  Final fractional coordinates of atoms :

--------------------------------------------------------------------------------
   No.  Atomic        x           y          z          Radius
        Label       (Frac)      (Frac)     (Frac)       (Angs) 
--------------------------------------------------------------------------------
     1  Sc    c     0.333900    0.333900    0.333900    0.000000
     2  Sc    c     0.667797    0.667813    0.667799    0.000000
     3  Cl    c     0.075682    0.445383    0.703391    0.000000
     4  Cl    c     0.297892    0.926501    0.556250    0.000000
     5  Cl    c     0.445899    0.703300    0.075286    0.000000
     6  Cl    c     0.555797    0.298410    0.926421    0.000000
     7  Cl    c     0.703804    0.075207    0.445450    0.000000
     8  Cl    c     0.926009    0.556319    0.298315    0.000000
     9  Cl    s     0.065947    0.452571    0.677260    0.000000
    10  Cl    s     0.324076    0.936176    0.549072    0.000000
    11  Cl    s     0.453018    0.677183    0.065599    0.000000
    12  Cl    s     0.548677    0.324526    0.936109    0.000000
    13  Cl    s     0.677621    0.065531    0.452629    0.000000
    14  Cl    s     0.935746    0.549133    0.324445    0.000000
--------------------------------------------------------------------------------

  Final Cartesian lattice vectors (Angstroms) :

        7.492716    0.017674    0.015750
        4.666685    5.870017    0.017236
        4.663123    2.258191    5.420142


  Final cell parameters and derivatives :

--------------------------------------------------------------------------------
       a            7.492753 Angstrom     dE/de1(xx)     0.001502 eV/strain
       b            7.499023 Angstrom     dE/de2(yy)     0.001130 eV/strain
       c            7.498139 Angstrom     dE/de3(zz)     0.001402 eV/strain
       alpha       51.360329 Degrees      dE/de4(yz)     0.000184 eV/strain
       beta        51.381576 Degrees      dE/de5(xz)     0.000594 eV/strain
       gamma       51.379896 Degrees      dE/de6(xy)     0.000958 eV/strain
--------------------------------------------------------------------------------

  Primitive cell volume =           237.388320 Angs**3

  Density of cell =      2.116870 g/cm**3

  Non-primitive cell volume =           237.388320 Angs**3


  Final internal derivatives :

--------------------------------------------------------------------------------
   No.  Atomic          a             b             c           Radius
        Label          (eV)          (eV)          (eV)        (eV/Angs)
--------------------------------------------------------------------------------
      1 Sc    c       0.000000      0.000000      0.000000      0.000000
      2 Sc    c       0.001681      0.001454      0.000124      0.000000
      3 Cl    c      -0.002719     -0.000640     -0.000937      0.000000
      4 Cl    c       0.000986      0.001285      0.000118      0.000000
      5 Cl    c       0.001446      0.000724      0.001502      0.000000
      6 Cl    c      -0.000978      0.000527     -0.000482      0.000000
      7 Cl    c      -0.001726     -0.001514     -0.000663      0.000000
      8 Cl    c       0.000842     -0.000977      0.000232      0.000000
      9 Cl    s       0.003561      0.001253      0.002922      0.000000
     10 Cl    s      -0.002865     -0.003016     -0.001029      0.000000
     11 Cl    s       0.001191      0.003381      0.002375      0.000000
     12 Cl    s      -0.001348     -0.004134     -0.001709      0.000000
     13 Cl    s       0.002463      0.001978      0.000726      0.000000
     14 Cl    s      -0.002693     -0.000158     -0.002951      0.000000
--------------------------------------------------------------------------------
  Maximum abs         0.003561      0.004134      0.002951      0.000000
--------------------------------------------------------------------------------

  Comparison of initial and final structures : 

--------------------------------------------------------------------------------
  Parameter   Initial value   Final value   Difference    Units      Percent
--------------------------------------------------------------------------------
    Volume       235.198534    237.388320     2.189785    Angs**3      0.93
    a              7.453000      7.492753     0.039753    Angstroms    0.53
    b              7.453000      7.499023     0.046023    Angstroms    0.62
    c              7.453000      7.498139     0.045139    Angstroms    0.61
    alpha         51.648000     51.360329    -0.287671    Degrees     -0.56
    beta          51.648000     51.381576    -0.266424    Degrees     -0.52
    gamma         51.648000     51.379896    -0.268104    Degrees     -0.52
      1 x          0.333900      0.333900     0.000000    Fractional   0.00
      1 y          0.333900      0.333900     0.000000    Fractional   0.00
      1 z          0.333900      0.333900     0.000000    Fractional   0.00
      2 x          0.666100      0.667797     0.001697    Fractional   0.25
      2 y          0.666100      0.667813     0.001713    Fractional   0.26
      2 z          0.666100      0.667799     0.001699    Fractional   0.25
      3 x          0.073700      0.075682     0.001982    Fractional   2.69
      3 y          0.443900      0.445383     0.001483    Fractional   0.33
      3 z          0.705300      0.703391     0.001909    Fractional   0.27
      4 x          0.294700      0.297892     0.003192    Fractional   1.08
      4 y          0.926300      0.926501     0.000201    Fractional   0.02
      4 z          0.556100      0.556250     0.000150    Fractional   0.03
      5 x          0.443900      0.445899     0.001999    Fractional   0.45
      5 y          0.705300      0.703300     0.002000    Fractional   0.28
      5 z          0.073700      0.075286     0.001586    Fractional   2.15
      6 x          0.556100      0.555797     0.000303    Fractional   0.05
      6 y          0.294700      0.298410     0.003710    Fractional   1.26
      6 z          0.926300      0.926421     0.000121    Fractional   0.01
      7 x          0.705300      0.703804     0.001496    Fractional   0.21
      7 y          0.073700      0.075207     0.001507    Fractional   2.04
      7 z          0.443900      0.445450     0.001550    Fractional   0.35
      8 x          0.926300      0.926009     0.000291    Fractional   0.03
      8 y          0.556100      0.556319     0.000219    Fractional   0.04
      8 z          0.294700      0.298315     0.003615    Fractional   1.23
      9 x          0.073700      0.065947     0.007753    Fractional  10.52
      9 y          0.443900      0.452571     0.008671    Fractional   1.95
      9 z          0.705300      0.677260     0.028040    Fractional   3.98
     10 x          0.294700      0.324076     0.029376    Fractional   9.97
     10 y          0.926300      0.936176     0.009876    Fractional   1.07
     10 z          0.556100      0.549072     0.007028    Fractional   1.26
     11 x          0.443900      0.453018     0.009118    Fractional   2.05
     11 y          0.705300      0.677183     0.028117    Fractional   3.99
     11 z          0.073700      0.065599     0.008101    Fractional  10.99
     12 x          0.556100      0.548677     0.007423    Fractional   1.33
     12 y          0.294700      0.324526     0.029826    Fractional  10.12
     12 z          0.926300      0.936109     0.009809    Fractional   1.06
     13 x          0.705300      0.677621     0.027679    Fractional   3.92
     13 y          0.073700      0.065531     0.008169    Fractional  11.08
     13 z          0.443900      0.452629     0.008729    Fractional   1.97
     14 x          0.926300      0.935746     0.009446    Fractional   1.02
     14 y          0.556100      0.549133     0.006967    Fractional   1.25
     14 z          0.294700      0.324445     0.029745    Fractional  10.09
--------------------------------------------------------------------------------


  Born effective charge tensors : 

-------------------------------------------------------------------------------
  Atom             x           y             z
-------------------------------------------------------------------------------
    1 Sc    x       2.2285     -0.2571     -0.1710
            y      -0.2560      2.6360     -0.0847
            z      -0.1727     -0.0813      2.7043
-------------------------------------------------------------------------------
    2 Sc    x       2.2285     -0.2571     -0.1710
            y      -0.2560      2.6360     -0.0846
            z      -0.1727     -0.0813      2.7044
-------------------------------------------------------------------------------
    3 Cl    x      -0.8062      0.2256      0.0411
            y       0.2160     -0.8834     -0.1927
            z       0.0553     -0.1841     -0.8334
-------------------------------------------------------------------------------
    4 Cl    x      -0.7835      0.1157      0.0049
            y       0.1062     -0.9970      0.2420
            z      -0.0106      0.2360     -0.7424
-------------------------------------------------------------------------------
    5 Cl    x      -0.6388     -0.0842      0.1250
            y      -0.0662     -0.7556      0.0353
            z       0.1280      0.0294     -1.1285
-------------------------------------------------------------------------------
    6 Cl    x      -0.6388     -0.0842      0.1250
            y      -0.0662     -0.7556      0.0353
            z       0.1280      0.0294     -1.1285
-------------------------------------------------------------------------------
    7 Cl    x      -0.7835      0.1157      0.0049
            y       0.1062     -0.9970      0.2420
            z      -0.0106      0.2360     -0.7424
-------------------------------------------------------------------------------
    8 Cl    x      -0.8062      0.2256      0.0411
            y       0.2160     -0.8834     -0.1927
            z       0.0553     -0.1841     -0.8334
-------------------------------------------------------------------------------




  Elastic Constant Matrix: (Units=GPa)

-------------------------------------------------------------------------------
  Indices      1         2         3         4         5         6    
-------------------------------------------------------------------------------
       1      3.6214    8.6385    8.0518    0.5781   -2.6064   -3.9922
       2      8.6385   31.8741   23.2528   -4.4482   -5.2569  -13.8933
       3      8.0518   23.2528   39.7403   -4.9820  -10.4619   -9.4746
       4      0.5781   -4.4482   -4.9820    7.0058   -1.6207    0.0048
       5     -2.6064   -5.2569  -10.4619   -1.6207    4.2787    3.1180
       6     -3.9922  -13.8933   -9.4746    0.0048    3.1180    6.9568
-------------------------------------------------------------------------------


  Elastic Compliance Matrix: (Units=1/GPa)

-------------------------------------------------------------------------------
  Indices      1         2         3         4         5         6    
-------------------------------------------------------------------------------
       1    4.139658 -2.323081 -1.150848 -3.167637 -2.310781 -2.793293
       2   -2.323081  2.746677 -0.244172  1.461210 -1.287173  4.395552
       3   -1.150848 -0.244172  1.480853  1.927327  4.035931 -0.941456
       4   -3.167637  1.461210  1.927327  3.842313  4.931639  1.512259
       5   -2.310781 -1.287173  4.035931  4.931639 11.609238 -3.606608
       6   -2.793293  4.395552 -0.941456  1.512259 -3.606608  7.652260
-------------------------------------------------------------------------------

  Mechanical properties :

-------------------------------------------------------------------------------
  Convention :                    Reuss         Voigt         Hill
-------------------------------------------------------------------------------
  Bulk  Modulus (GPa)     =       1.07413      17.23576       9.15495
  Shear Modulus (GPa)     =       0.12749       6.00110       3.06430
-------------------------------------------------------------------------------
  Velocity S-wave (km/s)  =       0.24541       1.68371       1.20315
  Velocity P-wave (km/s)  =       0.76663       3.45282       2.50097
-------------------------------------------------------------------------------
  Compressibility (1/GPa) =    0.93098656
-------------------------------------------------------------------------------
  Stress axis :                     x             y             z
-------------------------------------------------------------------------------
  Youngs Moduli (GPa)     =       0.24157       0.36408       0.67529
-------------------------------------------------------------------------------
  Poissons Ratio (x)      =                     0.84578       0.77715
  Poissons Ratio (y)      =       0.56118                     0.16489
  Poissons Ratio (z)      =       0.27801       0.08890
-------------------------------------------------------------------------------


  Piezoelectric Strain Matrix: (Units=C/m**2)

-------------------------------------------------------------------------------
  Indices      1         2         3         4         5         6    
-------------------------------------------------------------------------------
       x    -0.00008   0.00014   0.00001  -0.00009   0.00009  -0.00005
       y    -0.00004  -0.00012   0.00007   0.00004  -0.00006  -0.00002
       z    -0.00006  -0.00018  -0.00004  -0.00005   0.00002   0.00008
-------------------------------------------------------------------------------


  Piezoelectric Stress Matrix: (Units=10**-11 C/N)

-------------------------------------------------------------------------------
  Indices      1         2         3         4         5         6    
-------------------------------------------------------------------------------
       x    -0.04806   0.01066   0.03304   0.05336   0.08812  -0.00159
       y     0.01097  -0.01943   0.00109  -0.01104   0.00386  -0.03303
       z     0.00895  -0.00670  -0.00499  -0.01237  -0.01368  -0.00769
-------------------------------------------------------------------------------


  Static dielectric constant tensor : 

-------------------------------------------------------------------------------
              x         y         z
-------------------------------------------------------------------------------
       x     2.55749  -0.36997  -0.24788
       y    -0.36997   3.14505  -0.11962
       z    -0.24788  -0.11962   3.24356
--------------------------------------------------------------------------------

  High frequency dielectric constant tensor : 

-------------------------------------------------------------------------------
              x         y         z
-------------------------------------------------------------------------------
       x     1.82639  -0.04056  -0.02716
       y    -0.04056   1.89075  -0.01312
       z    -0.02716  -0.01312   1.90154
-------------------------------------------------------------------------------

  Static refractive indices : 

-------------------------------------------------------------------------------
    1 =    1.51614      2 =    1.82309      3 =    1.82312
-------------------------------------------------------------------------------

  High frequency refractive indices : 

-------------------------------------------------------------------------------
    1 =    1.34090      2 =    1.38214      3 =    1.38215
-------------------------------------------------------------------------------


  Time to end of optimisation =       0.3916 seconds

********************************************************************************
*  Defect calculation for configuration   1 :                                  *
********************************************************************************



!!!!!!!!!!!!!!!!!!!!!!!!!!!!!!!!!!!!!!!!!!!!!!!!!!!!!!!!!!!!!!!!!!!!!!!!!!!!!!!!
!! WARNING : Ambiguous vacancy specifier used
!!!!!!!!!!!!!!!!!!!!!!!!!!!!!!!!!!!!!!!!!!!!!!!!!!!!!!!!!!!!!!!!!!!!!!!!!!!!!!!!



!!!!!!!!!!!!!!!!!!!!!!!!!!!!!!!!!!!!!!!!!!!!!!!!!!!!!!!!!!!!!!!!!!!!!!!!!!!!!!!!
!! WARNING : Ambiguous vacancy specifier used
!!!!!!!!!!!!!!!!!!!!!!!!!!!!!!!!!!!!!!!!!!!!!!!!!!!!!!!!!!!!!!!!!!!!!!!!!!!!!!!!

  Total number of defects =      2

  Total charge on defect  =   1.00

  Defect centre is at   0.0737   0.4439   0.7053  Frac

  Region 1 radius =  19.0000      Number of ions =   1711

  Region 2 radius =  24.0000      Number of ions =   1726

  Region 2a mode = 4 : screened electrostatics due to region 1 
                       neglect correction to region 1 forces from 2a
                       region 2a displacements based on defects only

  Region 2a ions will only interact with defects in region 1

  Vacancies:

--------------------------------------------------------------------------------
    Specification type     Symbol/Number         x          y          z
--------------------------------------------------------------------------------
    Atom                    Cl    core
    Atom                    Cl    shel
--------------------------------------------------------------------------------


  Components of defect energy : 

--------------------------------------------------------------------------------
  Region 1 - region 1                   =     10.27039708 eV
  Region 1 - region 2a (unrelaxed)      =     -0.73592249 eV
  Region 1 - 2a (relaxed - correction)  =     -0.10166524 eV
  Region 1 (Total)                      =      9.43280935 eV
  Region 2a                             =      0.05083520 eV
  Region 2b                             =     -0.19638630 eV
--------------------------------------------------------------------------------
  Total defect energy                   =      9.28725825 eV
--------------------------------------------------------------------------------

  Largest displacement in region 2 =   0.0055 Angstroms


  Number of variables =     5133

  Maximum number of calculations  =        1000
  Maximum Hessian update interval =          10
  Maximum step size               =   1.0000000
  Maximum parameter tolerance     =   0.0000100
  Maximum function  tolerance     =   0.0000100
  Maximum gradient  tolerance     =   0.0010000

  Symmetry adapted optimisation

  Newton-Raphson optimiser to be used

  BFGS hessian update to be used

  Lower half triangular hessian to be used

  Start of defect optimisation :

  Cycle:      0 Defect Energy:   9.287258  Gnorm:     0.003362  CPU:   42.287
  ** Hessian calculated **
  Cycle:      1 Defect Energy:   8.339122  Gnorm:     0.002811  CPU:  200.261
  Cycle:      2 Defect Energy:   7.876770  Gnorm:     0.002491  CPU:  252.751
  ** Hessian calculated **
  Cycle:      3 Defect Energy:   6.956609  Gnorm:     0.001759  CPU:  371.125
  Cycle:      4 Defect Energy:   5.983951  Gnorm:     0.000219  CPU:  391.440
  Cycle:      5 Defect Energy:   5.940699  Gnorm:     0.000152  CPU:  396.596
  Cycle:      6 Defect Energy:   5.899091  Gnorm:     0.000108  CPU:  401.691
  Cycle:      7 Defect Energy:   5.895181  Gnorm:     0.000135  CPU:  406.799
  ** Hessian calculated **
  Cycle:      8 Defect Energy:   5.869805  Gnorm:     0.000093  CPU:  502.764
  Cycle:      9 Defect Energy:   5.856638  Gnorm:     0.000064  CPU:  507.137
  Cycle:     10 Defect Energy:   5.849224  Gnorm:     0.000044  CPU:  511.492
  Cycle:     11 Defect Energy:   5.844921  Gnorm:     0.000031  CPU:  515.878
  Cycle:     12 Defect Energy:   5.842376  Gnorm:     0.000022  CPU:  520.238
  Cycle:     13 Defect Energy:   5.840849  Gnorm:     0.000016  CPU:  524.597
  Cycle:     14 Defect Energy:   5.839956  Gnorm:     0.000011  CPU:  529.012
  Cycle:     15 Defect Energy:   5.839476  Gnorm:     0.000008  CPU:  533.369
  Cycle:     16 Defect Energy:   5.839187  Gnorm:     0.000006  CPU:  537.748
  Cycle:     17 Defect Energy:   5.839026  Gnorm:     0.000004  CPU:  542.140
  ** Hessian calculated **
  Cycle:     18 Defect Energy:   5.838946  Gnorm:     0.000003  CPU:  644.447
  Cycle:     19 Defect Energy:   5.838902  Gnorm:     0.000002  CPU:  648.903
  Cycle:     20 Defect Energy:   5.838880  Gnorm:     0.000001  CPU:  653.363
  Cycle:     21 Defect Energy:   5.838869  Gnorm:     0.000001  CPU:  657.851


  **** Optimisation achieved ****


  Final defect energy  =        5.83886283
  Final defect Gnorm   =        0.00000072

  Components of defect energy : 

--------------------------------------------------------------------------------
  Region 1 - region 1                   =      7.56570476 eV
  Region 1 - region 2a (unrelaxed)      =     -1.48709187 eV
  Region 1 - 2a (relaxed - correction)  =     -0.08636261 eV
  Region 1 (Total)                      =      5.99225028 eV
  Region 2a                             =      0.04317751 eV
  Region 2b                             =     -0.19656497 eV
--------------------------------------------------------------------------------
  Total defect energy                   =      5.83886283 eV
--------------------------------------------------------------------------------

  Largest displacement in region 2 =   0.0055 Angstroms

  Final coordinates of region 1 :

--------------------------------------------------------------------------------
   No.  Atomic        x           y           z          Radius      Charge
        Label       (Angs)      (Angs)      (Angs)       (Angs)       (e) 
--------------------------------------------------------------------------------
     1  Sc    c     3.287089    5.660253    3.781021    0.000000    3.000000
     2  Sc    c     5.641582    2.279410    1.524631    0.000000    3.000000
     3  Cl    c     3.953334    3.890637    2.237681    0.000000    1.485000
     4  Cl    c     4.192162    6.430220    5.925723    0.000000    1.485000
     5  Cl    c     7.685782    1.435265    2.585829    0.000000    1.485000
     6  Cl    c     6.873945    4.072804    0.363037    0.000000    1.485000
     7  Cl    c     4.625181    7.291542    2.505485    0.000000    1.485000
     8  Cl    c     2.173606    3.915206    5.112371    0.000000    1.485000
     9  Cl    c     4.479999    0.615032    2.915267    0.000000    1.485000
    10  Cl    c     9.825262    3.871271    5.024638    0.000000    1.485000
    11  Cl    c     4.807380    3.604334    7.822093    0.000000    1.485000
    12  Cl    c     9.130117    6.674566    3.014138    0.000000    1.485000
    13  Cl    c     6.864023    0.658818    5.861735    0.000000    1.485000
    14  Cl    c     8.077860    6.180725    7.048818    0.000000    1.485000
    15  Sc    c     2.732651    4.915713    7.395877    0.000000    3.000000
    16  Sc    c     6.589023   -0.584673    3.722281    0.000000    3.000000
    17  Cl    c     1.329310    6.813395    2.881423    0.000000    1.485000
    18  Cl    c     5.083760    1.448159   -0.703681    0.000000    1.485000
    19  Sc    c    11.229211    5.432776    3.637300    0.000000    3.000000
    20  Cl    c    10.898864    3.930269    1.653177    0.000000    1.485000
    21  Sc    c    10.272574    4.971848    7.244556    0.000000    3.000000
    22  Cl    c     3.384039    0.268899    7.068106    0.000000    1.485000
    23  Sc    c     2.639161    8.691458    1.715602    0.000000    3.000000
    24  Cl    c     9.128339    3.072426    8.414065    0.000000    1.485000
    25  Sc    c     6.531484    3.140772   -1.989097    0.000000    3.000000
    26  Cl    c     7.022164    9.701555    5.033324    0.000000    1.485000
    27  Sc    c     3.688011    1.723652    9.093220    0.000000    3.000000
    28  Sc    c     5.556453   -0.968483    7.295631    0.000000    3.000000
    29  Cl    c     1.596854    3.006226    8.507321    0.000000    1.485000
    30  Cl    c     5.175708   -2.111852    5.081768    0.000000    1.485000
    31  Cl    c     4.453314    4.433811   -2.454831    0.000000    1.485000
    32  Cl    c     2.331602    7.472065   -0.433663    0.000000    1.485000
    33  Cl    c     8.060651    9.774464    1.653284    0.000000    1.485000
    34  Cl    c     3.086260    6.455658    9.312398    0.000000    1.485000
    35  Cl    c     5.889896    0.547686    9.259329    0.000000    1.485000
    36  Cl    c     0.176004    1.442896    2.410267    0.000000    1.485000
    37  Cl    c     2.982687   10.022155    3.797602    0.000000    1.485000
    38  Cl    c     8.795626   -1.714394    3.856045    0.000000    1.485000
    39  Cl    c     0.639039    6.230299    7.059391    0.000000    1.485000
    40  Sc    c    10.263990    8.585684    1.827528    0.000000    3.000000
    41  Cl    c     6.328245   -1.909465    1.622650    0.000000    1.485000
    42  Cl    c     5.868228    7.784286   -1.597941    0.000000    1.485000
    43  Cl    c     8.662158    1.897756   -1.627307    0.000000    1.485000
    44  Cl    c    11.619837    6.554204    5.841467    0.000000    1.485000
    45  Cl    c     6.301072    8.918830    8.414640    0.000000    1.485000
    46  Cl    c     9.849209    7.461328   -0.374775    0.000000    1.485000
    47  Sc    c     8.391582    7.679437    9.050055    0.000000    3.000000
    48  Cl    c     7.025599    6.094901   10.433233    0.000000    1.485000
    49  Cl    c    11.962985    0.833814    3.026289    0.000000    1.485000
    50  Cl    c     4.131300   10.162677    0.378198    0.000000    1.485000
    51  Cl    c    10.906469    0.330082    7.038794    0.000000    1.485000
    52  Cl    c     7.676712    5.093580   -3.012910    0.000000    1.485000
    53  Cl    c    -0.520466    4.247732    0.410580    0.000000    1.485000
    54  Cl    c    12.343592    7.322482    2.434868    0.000000    1.485000
    55  Cl    c    -1.581218    4.182211    3.774990    0.000000    1.485000
    56  Cl    c     1.253876   -1.649227    3.779799    0.000000    1.485000
    57  Cl    c     1.232812    1.935048   -1.608327    0.000000    1.485000
    58  Cl    c    10.572016    6.457094    9.237734    0.000000    1.485000
    59  Cl    c    13.398865    4.205148    3.836438    0.000000    1.485000
    60  Cl    c    10.561009   10.053608    3.836177    0.000000    1.485000
    61  Sc    c     8.385691   11.287210    3.637154    0.000000    3.000000
    62  Cl    c    -0.533697    0.665306    5.803351    0.000000    1.485000
    63  Sc    c    13.101079    2.722750    1.830719    0.000000    3.000000
    64  Cl    c     2.288981   -1.572484    0.398727    0.000000    1.485000
    65  Sc    c     7.437212   10.829104    7.242216    0.000000    3.000000
    66  Cl    c    12.346979    3.700380    7.829682    0.000000    1.485000
    67  Cl    c     9.518449    9.558175    7.835019    0.000000    1.485000
    68  Cl    c     7.662326   -2.192192    7.843882    0.000000    1.485000
    69  Sc    c     3.717105    9.051956   -1.846001    0.000000    3.000000
    70  Cl    c     4.100468    2.902258   11.253259    0.000000    1.485000
    71  Sc    c     5.587712    6.357349   -3.644561    0.000000    3.000000
    72  Cl    c     2.039354    9.565461    7.827908    0.000000    1.485000
    73  Cl    c     9.804007   -1.547636    0.411967    0.000000    1.485000
    74  Sc    c    11.216631    1.812757    9.041163    0.000000    3.000000
    75  Sc    c     0.907812    7.721014    9.084598    0.000000    3.000000
    76  Sc    c     8.509115   -3.173585    1.807804    0.000000    3.000000
    77  Cl    c     0.490285    9.925148    1.573281    0.000000    1.485000
    78  Cl    c     6.277210    1.645069   -3.954974    0.000000    1.485000
    79  Sc    c    -1.925996    2.681101    1.790456    0.000000    3.000000
    80  Sc    c    -0.952115   -0.465482    3.605329    0.000000    3.000000
    81  Cl    c    12.675950    1.611791   -0.375792    0.000000    1.485000
    82  Cl    c     6.301083   12.536778    3.019326    0.000000    1.485000
    83  Cl    c     2.339785    0.163601   10.492458    0.000000    1.485000
    84  Cl    c     4.448453   -2.857236    8.481772    0.000000    1.485000
    85  Cl    c    -0.470297    9.711109    5.034635    0.000000    1.485000
    86  Cl    c     7.321998   -1.441145   -2.407315    0.000000    1.485000
    87  Cl    c     5.249051   12.035076    7.050917    0.000000    1.485000
    88  Cl    c     9.845141    0.239080   10.429843    0.000000    1.485000
    89  Sc    c     0.831325   11.338164    3.643073    0.000000    3.000000
    90  Sc    c     8.459831    0.405635   -3.658432    0.000000    3.000000
    91  Cl    c     3.391577    7.545440   -3.820086    0.000000    1.485000
    92  Cl    c    11.961274    4.448636   -2.376308    0.000000    1.485000
    93  Sc    c    -0.957411    3.150064   -1.812139    0.000000    3.000000
    94  Cl    c     0.193628    5.046623   -2.978469    0.000000    1.485000
    95  Cl    c     3.017687   -0.794091   -2.979026    0.000000    1.485000
    96  Cl    c     8.791117   12.406400    5.840886    0.000000    1.485000
    97  Cl    c    11.610320   10.171086    0.435230    0.000000    1.485000
    98  Cl    c     8.077194    2.576951   12.443503    0.000000    1.485000
    99  Sc    c     0.932592   -3.163645    1.797079    0.000000    3.000000
   100  Sc    c    11.218617    9.046307   -1.774231    0.000000    3.000000
   101  Cl    c    -2.633862    7.283226    2.405307    0.000000    1.485000
   102  Cl    c     3.023900   -4.402014    2.414044    0.000000    1.485000
   103  Cl    c     8.787496    8.802861   11.249363    0.000000    1.485000
   104  Cl    c    14.436195    4.320791    0.438713    0.000000    1.485000
   105  Cl    c    12.678390   -2.001368    5.026152    0.000000    1.485000
   106  Cl    c     9.133135   10.302180   -2.379452    0.000000    1.485000
   107  Cl    c    -0.426435    6.096570   10.439452    0.000000    1.485000
   108  Cl    c     7.339725   -5.019408    3.021196    0.000000    1.485000
   109  Sc    c    14.055262   -0.426612    3.638028    0.000000    3.000000
   110  Cl    c    -2.624796    3.677354    7.809933    0.000000    1.485000
   111  Cl    c     0.195764   -2.170948    7.810563    0.000000    1.485000
   112  Sc    c    13.097755   -0.888500    7.236697    0.000000    3.000000
   113  Sc    c     7.435288    7.214472   12.650169    0.000000    3.000000
   114  Cl    c    11.606703    2.950069   11.236858    0.000000    1.485000
   115  Cl    c    14.440456    0.707388    5.840092    0.000000    1.485000
   116  Sc    c    -0.056980   10.839586    7.246792    0.000000    3.000000
   117  Sc    c     9.417086   -2.698903   -1.795488    0.000000    3.000000
   118  Cl    c    -3.035888    0.791804    2.996635    0.000000    1.485000
   119  Cl    c    -2.314432    1.567303   -0.416866    0.000000    1.485000
   120  Cl    c     1.310035   12.412767    5.848660    0.000000    1.485000
   121  Cl    c    10.545064   -0.798351   -2.981477    0.000000    1.485000
   122  Cl    c     6.955634    7.933504   -5.010941    0.000000    1.485000
   123  Cl    c     4.862536   10.931698   -3.016132    0.000000    1.485000
   124  Cl    c     5.253053    8.431972   12.449138    0.000000    1.485000
   125  Cl    c    -1.179382    8.939527    8.437989    0.000000    1.485000
   126  Cl    c    -1.247364   -1.938141    1.599508    0.000000    1.485000
   127  Sc    c     0.927040    0.443616   -3.616398    0.000000    3.000000
   128  Cl    c     8.055033   -4.271312   -0.392333    0.000000    1.485000
   129  Cl    c     1.637640   10.317207   -2.403295    0.000000    1.485000
   130  Cl    c     5.214671    5.202349   -5.825103    0.000000    1.485000
   131  Cl    c    10.901184    7.545875   -3.759925    0.000000    1.485000
   132  Sc    c    -3.778603    5.401462    3.604807    0.000000    3.000000
   133  Cl    c    -3.337888    6.512412    5.808070    0.000000    1.485000
   134  Sc    c     1.882521   -2.706115   -1.809719    0.000000    3.000000
   135  Sc    c     2.754599    1.325347   12.691189    0.000000    3.000000
   136  Sc    c     6.562416   -4.105397    9.063374    0.000000    3.000000
   137  Cl    c     2.296289    2.033378   -4.990065    0.000000    1.485000
   138  Cl    c    15.180857    1.467456    2.438387    0.000000    1.485000
   139  Cl    c     9.519958   13.162093    2.429366    0.000000    1.485000
   140  Cl    c     1.316454    8.816961   11.285895    0.000000    1.485000
   141  Cl    c    10.573459   -4.425737    2.433800    0.000000    1.485000
   142  Cl    c     2.014962   13.177439    2.433975    0.000000    1.485000
   143  Cl    c     9.798841    2.037018   -4.999797    0.000000    1.485000
   144  Cl    c    -1.566560    0.582308    9.193856    0.000000    1.485000
   145  Sc    c    -1.894254   -0.920016    7.211347    0.000000    3.000000
   146  Cl    c    -1.577790    7.789795   -1.600055    0.000000    1.485000
   147  Cl    c    13.399119    0.601121    9.233403    0.000000    1.485000
   148  Cl    c     4.075181   -3.901993   -1.608842    0.000000    1.485000
   149  Cl    c     7.743836   12.301014    9.243801    0.000000    1.485000
   150  Cl    c    13.392156    7.818623   -1.563624    0.000000    1.485000
   151  Sc    c    14.050199    3.191024   -1.770492    0.000000    3.000000
   152  Cl    c     6.299930    5.315567   13.828306    0.000000    1.485000
   153  Cl    c     7.035064   13.313821   -0.374239    0.000000    1.485000
   154  Cl    c    13.741523   -1.907586    1.638974    0.000000    1.485000
   155  Cl    c    -4.091687    3.915791    1.603287    0.000000    1.485000
   156  Sc    c    10.262169    1.357963   12.641992    0.000000    3.000000
   157  Cl    c     2.296988   -5.175458    5.809699    0.000000    1.485000
   158  Cl    c     0.589017    2.560845   12.457017    0.000000    1.485000
   159  Cl    c     6.257178   -5.550289    7.039121    0.000000    1.485000
   160  Cl    c     9.517704    5.948021   13.235661    0.000000    1.485000
   161  Cl    c     4.850843    0.074636   13.250902    0.000000    1.485000
   162  Cl    c    11.961293   -2.775752    8.429740    0.000000    1.485000
   163  Cl    c    13.810104    8.953982    8.448801    0.000000    1.485000
   164  Cl    c     2.034655    5.934267   13.244597    0.000000    1.485000
   165  Cl    c    14.535368    9.726333    5.051298    0.000000    1.485000
   166  Cl    c     6.955727   -2.940540   11.243372    0.000000    1.485000
   167  Cl    c     4.207748   11.943922   10.441285    0.000000    1.485000
   168  Cl    c     9.791756   -5.168981    5.834688    0.000000    1.485000
   169  Cl    c    -2.293313   -2.048560    5.004690    0.000000    1.485000
   170  Cl    c    -0.200018   -1.439986   -2.408178    0.000000    1.485000
   171  Cl    c    15.583805    6.209590    7.064395    0.000000    1.485000
   172  Sc    c    13.098299    6.342205   -3.573866    0.000000    3.000000
   173  Sc    c     7.440132   14.439119    1.830451    0.000000    3.000000
   174  Sc    c     5.563279   13.532224    9.049920    0.000000    3.000000
   175  Cl    c    -1.252830    1.666154   -3.807198    0.000000    1.485000
   176  Cl    c    -3.027925    4.425582   -2.402160    0.000000    1.485000
   177  Cl    c     0.531627   -4.284016   -0.406652    0.000000    1.485000
   178  Sc    c     8.388148    4.061564   14.447371    0.000000    3.000000
   179  Cl    c    12.757340   12.061292    7.065985    0.000000    1.485000
   180  Sc    c    -1.889804    6.313469   -3.606567    0.000000    3.000000
   181  Cl    c    -1.224945   12.611668    3.035520    0.000000    1.485000
   182  Cl    c     8.079250   -0.697942   -5.860596    0.000000    1.485000
   183  Sc    c    -0.046760    7.207947   12.667413    0.000000    3.000000
   184  Cl    c    14.532656    6.115668   10.453248    0.000000    1.485000
   185  Sc    c     9.414095   -6.311654    3.636582    0.000000    3.000000
   186  Cl    c    16.637526    6.714148    3.046741    0.000000    1.485000
   187  Cl    c    -5.112125    3.809454    5.004514    0.000000    1.485000
   188  Cl    c    -0.191509   -5.042498    3.007059    0.000000    1.485000
   189  Sc    c    -4.712194    4.940580    7.211138    0.000000    3.000000
   190  Cl    c    -4.067520    0.309094    7.008760    0.000000    1.485000
   191  Cl    c    13.739138    1.701643   -3.763123    0.000000    1.485000
   192  Sc    c    -3.762481    1.788885    9.015474    0.000000    3.000000
   193  Sc    c     1.895330   -6.307871    3.608238    0.000000    3.000000
   194  Cl    c     3.082744    2.839132   14.655880    0.000000    1.485000
   195  Cl    c     0.262177   12.306541    9.245871    0.000000    1.485000
   196  Cl    c     8.760483   -5.285597    9.228697    0.000000    1.485000
   197  Cl    c     3.087500   13.664729   -1.587228    0.000000    1.485000
   198  Cl    c    11.593314   -3.907912   -1.583776    0.000000    1.485000
   199  Cl    c     8.745770    5.569052   -6.994490    0.000000    1.485000
   200  Sc    c     2.774638   12.216457   -3.608150    0.000000    3.000000
   201  Sc    c     6.575291    6.796473   -7.227799    0.000000    3.000000
   202  Cl    c    15.583724    9.818573    1.662087    0.000000    1.485000
   203  Cl    c    -3.341190   10.127766    0.412269    0.000000    1.485000
   204  Cl    c    -0.512981    7.888606   -4.988491    0.000000    1.485000
   205  Cl    c    17.359250    3.874360    5.049718    0.000000    1.485000
   206  Cl    c     9.130077   -0.533911   13.832296    0.000000    1.485000
   207  Cl    c    13.812381   12.565764    3.046605    0.000000    1.485000
   208  Cl    c    15.179799    5.085029   -2.959337    0.000000    1.485000
   209  Cl    c    12.352609   10.932531   -2.966030    0.000000    1.485000
   210  Cl    c     4.213608   15.554226    5.035968    0.000000    1.485000
   211  Sc    c    -4.720690    8.555996    1.800327    0.000000    3.000000
   212  Cl    c     3.429471   -3.295530   12.450241    0.000000    1.485000
   213  Cl    c     5.253224   15.648894    1.645096    0.000000    1.485000
   214  Sc    c     0.893883    4.053696   14.457477    0.000000    3.000000
   215  Sc    c    14.946042   10.849276    7.258311    0.000000    3.000000
   216  Cl    c    16.636412    3.102917    8.450428    0.000000    1.485000
   217  Sc    c     8.445777   -6.771188    7.226842    0.000000    3.000000
   218  Cl    c    -2.233117   12.050658    7.043116    0.000000    1.485000
   219  Cl    c     9.103535   -4.171356   -3.791762    0.000000    1.485000
   220  Cl    c    11.709572   11.966779   10.455881    0.000000    1.485000
   221  Sc    c    10.271742   12.200164   -3.574353    0.000000    3.000000
   222  Sc    c    15.897569    7.698585    9.062374    0.000000    3.000000
   223  Cl    c     3.480456   14.784779    8.431348    0.000000    1.485000
   224  Cl    c    12.692879    5.220740   -5.777462    0.000000    1.485000
   225  Cl    c    12.756492    8.452321   12.467183    0.000000    1.485000
   226  Cl    c    -4.390348    6.431340    9.200761    0.000000    1.485000
   227  Cl    c    -4.398395   10.033164    3.800732    0.000000    1.485000
   228  Cl    c     1.258869   -5.269682    9.199228    0.000000    1.485000
   229  Cl    c     5.205490   -5.673243   10.460458    0.000000    1.485000
   230  Cl    c     1.635544   -0.567789   13.877563    0.000000    1.485000
   231  Cl    c    10.573905    2.847853   14.634273    0.000000    1.485000
   232  Cl    c     7.746316    8.697798   14.644521    0.000000    1.485000
   233  Cl    c     4.087595   -7.507191    3.795518    0.000000    1.485000
   234  Cl    c    16.234566   -1.640986    3.834834    0.000000    1.485000
   235  Cl    c     1.258681    5.553195   -6.999998    0.000000    1.485000
   236  Cl    c    16.227036    1.972122   -1.562785    0.000000    1.485000
   237  Cl    c    -0.441605   13.319786   -0.379411    0.000000    1.485000
   238  Cl    c     4.081959   -0.297700   -7.002564    0.000000    1.485000
   239  Cl    c     7.748671   15.906219    3.838577    0.000000    1.485000
   240  Cl    c     7.330569    2.196080   -7.802346    0.000000    1.485000
   241  Cl    c    10.573773   13.669798   -1.563926    0.000000    1.485000
   242  Sc    c    -0.934567   -4.067687    9.015763    0.000000    3.000000
   243  Cl    c    -3.347029    2.912610   11.215705    0.000000    1.485000
   244  Cl    c    15.179713   -2.144398    7.836813    0.000000    1.485000
   245  Cl    c     5.128211   -3.805601   -4.995950    0.000000    1.485000
   246  Cl    c     6.700317   15.407707    7.839685    0.000000    1.485000
   247  Sc    c    -0.052815   14.474521    1.810846    0.000000    3.000000
   248  Sc    c     9.422192    0.935371   -7.232047    0.000000    3.000000
   249  Cl    c    -5.853315    6.665844    3.000938    0.000000    1.485000
   250  Cl    c     0.540544   -0.674780   -5.819629    0.000000    1.485000
   251  Sc    c     5.563053    9.920676   14.453732    0.000000    3.000000
   252  Cl    c    -0.528612   -2.936083   11.214528    0.000000    1.485000
   253  Cl    c     1.588489   -4.181243   -3.809823    0.000000    1.485000
   254  Cl    c    12.346515    0.099467   13.233494    0.000000    1.485000
   255  Cl    c     5.129484   -7.413772    0.406667    0.000000    1.485000
   256  Cl    c     6.696963   11.801537   13.243372    0.000000    1.485000
   257  Cl    c     8.081717   13.408423   -3.761072    0.000000    1.485000
   258  Sc    c    -3.763696    9.016939   -1.798340    0.000000    3.000000
   259  Sc    c     1.899317    0.917365   -7.210690    0.000000    3.000000
   260  Cl    c     7.030080    2.478751   15.838692    0.000000    1.485000
   261  Cl    c    14.798171   -1.398696   -2.372723    0.000000    1.485000
   262  Cl    c    -3.020379   -2.806042    8.410054    0.000000    1.485000
   263  Cl    c    -5.112548    7.425201   -0.402539    0.000000    1.485000
   264  Sc    c    15.898931   11.310176    3.657459    0.000000    3.000000
   265  Cl    c    -1.187977    5.308052   13.832010    0.000000    1.485000
   266  Cl    c     8.030577   -7.880071    5.015731    0.000000    1.485000
   267  Sc    c     3.776040   -5.400411   -3.609136    0.000000    3.000000
   268  Cl    c     4.486613    8.053507   -7.802929    0.000000    1.485000
   269  Cl    c     2.382460   11.067316   -5.797073    0.000000    1.485000
   270  Sc    c     8.398426   14.902815   -1.767922    0.000000    3.000000
   271  Sc    c    17.772529    4.994564    7.257083    0.000000    3.000000
   272  Sc    c     3.734533   -1.824456   14.461556    0.000000    3.000000
   273  Sc    c     5.607555   -4.523204   12.659019    0.000000    3.000000
   274  Cl    c     3.477920   11.173726   13.835659    0.000000    1.485000
   275  Cl    c    10.911588   -3.273630   12.444058    0.000000    1.485000
   276  Cl    c     9.869995   11.074782   -5.777250    0.000000    1.485000
   277  Cl    c    -1.237376   -5.541311    7.008089    0.000000    1.485000
   278  Sc    c     0.942304   -6.767491    7.208781    0.000000    3.000000
   279  Sc    c    15.933022   -3.126261    1.830844    0.000000    3.000000
   280  Cl    c    -2.219849    8.427959   12.440376    0.000000    1.485000
   281  Sc    c     4.614330   13.071091   12.650968    0.000000    3.000000
   282  Cl    c     9.097556   -7.766202    1.623093    0.000000    1.485000
   283  Cl    c    17.363303    7.484868   -0.353908    0.000000    1.485000
   284  Cl    c     3.038963    2.817138   -8.383122    0.000000    1.485000
   285  Cl    c    10.984024   14.807058    8.450973    0.000000    1.485000
   286  Cl    c     8.802260   16.018988    0.441854    0.000000    1.485000
   287  Cl    c    -5.842584    3.050483    8.405524    0.000000    1.485000
   288  Cl    c    -2.276796    5.182431   -5.806068    0.000000    1.485000
   289  Sc    c    14.050749   -4.036125    9.042639    0.000000    3.000000
   290  Cl    c    18.410590    3.968259    1.659528    0.000000    1.485000
   291  Sc    c    17.773892    8.606695    1.851899    0.000000    3.000000
   292  Cl    c    13.806751    5.343115   13.852241    0.000000    1.485000
   293  Cl    c    -2.620291   10.901114   -2.989963    0.000000    1.485000
   294  Cl    c     4.207248    8.333520   15.843198    0.000000    1.485000
   295  Cl    c     5.862832   -6.643866   -2.986646    0.000000    1.485000
   296  Cl    c    14.796178   -5.011679    3.029089    0.000000    1.485000
   297  Cl    c     5.972836   14.652165   11.251793    0.000000    1.485000
   298  Cl    c    14.447208    7.933798   -4.960289    0.000000    1.485000
   299  Cl    c    11.712815   15.577035    5.052837    0.000000    1.485000
   300  Sc    c    18.724634    5.456244    3.656497    0.000000    3.000000
   301  Cl    c    13.741609   -5.516291    7.040834    0.000000    1.485000
   302  Sc    c    13.070255   13.552401    9.063718    0.000000    3.000000
   303  Cl    c     1.593792   -7.778317    1.601812    0.000000    1.485000
   304  Sc    c     5.571514   17.142234    3.642167    0.000000    3.000000
   305  Cl    c    -5.190487   -1.588139    0.391898    0.000000    1.485000
   306  Cl    c     0.260126    8.691648   14.657886    0.000000    1.485000
   307  Cl    c    -4.069133    7.530985   -3.797632    0.000000    1.485000
   308  Cl    c     5.927338   -3.024034   14.643577    0.000000    1.485000
   309  Sc    c    14.942885    7.236499   12.662333    0.000000    3.000000
   310  Cl    c     0.271313   15.931566    3.821598    0.000000    1.485000
   311  Cl    c    17.028305    9.586002    7.859816    0.000000    1.485000
   312  Cl    c    11.592287   -7.523947    3.826281    0.000000    1.485000
   313  Sc    c    15.933165    0.490168   -3.571318    0.000000    3.000000
   314  Sc    c     4.619041   16.681785    7.242192    0.000000    3.000000
   315  Cl    c     5.918391   11.418960   -6.986484    0.000000    1.485000
   316  Cl    c    11.599366   -0.277748   -7.004991    0.000000    1.485000
   317  Sc    c     0.910559   14.905552   -1.783639    0.000000    3.000000
   318  Cl    c    15.583499    2.599946   12.464800    0.000000    1.485000
   319  Cl    c     0.587951   13.418602   -3.782443    0.000000    1.485000
   320  Cl    c     6.264376    5.296385   -9.207130    0.000000    1.485000
   321  Sc    c     8.456773    4.089703   -9.007713    0.000000    3.000000
   322  Cl    c     1.334264   16.027788    0.419791    0.000000    1.485000
   323  Cl    c     4.148192   13.782786   -4.992454    0.000000    1.485000
   324  Cl    c    10.548615    2.846390   -8.391098    0.000000    1.485000
   325  Cl    c     7.707604    8.692820   -8.398565    0.000000    1.485000
   326  Cl    c    -5.447172    9.534582    7.814953    0.000000    1.485000
   327  Cl    c     3.028218   -8.021071    7.811812    0.000000    1.485000
   328  Cl    c     8.789102    5.192152   16.645289    0.000000    1.485000
   329  Cl    c    17.276817   -1.529389    0.439905    0.000000    1.485000
   330  Sc    c    -0.924218    6.774566   -7.203808    0.000000    3.000000
   331  Sc    c    -1.925660   13.535405    9.052408    0.000000    3.000000
   332  Cl    c    10.981582   11.195533   13.854191    0.000000    1.485000
   333  Sc    c    11.291847   -5.396063   -3.592974    0.000000    3.000000
   334  Cl    c    14.541723   13.336115   -0.352894    0.000000    1.485000
   335  Cl    c     0.539395   -7.888864    5.001164    0.000000    1.485000
   336  Cl    c    -0.181105    2.184279   -7.802773    0.000000    1.485000
   337  Sc    c    11.219905   -1.790112   14.445572    0.000000    3.000000
   338  Cl    c    -6.885621    6.165876    7.008272    0.000000    1.485000
   339  Cl    c    -2.624632    0.069505   13.217853    0.000000    1.485000
   340  Cl    c    14.444719   -2.900191   11.241546    0.000000    1.485000
   341  Cl    c    -4.462317   -0.816794   -3.005241    0.000000    1.485000
   342  Cl    c    16.298271   12.435189    5.862351    0.000000    1.485000
   343  Cl    c    -5.107836    0.200704   10.408516    0.000000    1.485000
   344  Cl    c     2.644347   -7.279761   -2.400178    0.000000    1.485000
   345  Cl    c    15.520088   -4.241373   -0.376319    0.000000    1.485000
   346  Cl    c    18.411686    0.358671    7.061831    0.000000    1.485000
   347  Cl    c     6.317032   16.163550   -2.372393    0.000000    1.485000
   348  Cl    c    -6.236856   -1.682128    3.780906    0.000000    1.485000
   349  Cl    c    -6.235359    1.925709   -1.619158    0.000000    1.485000
   350  Cl    c    -3.410056   -3.923143   -1.620495    0.000000    1.485000
   351  Cl    c    18.078423    6.478205    9.257247    0.000000    1.485000
   352  Cl    c    15.251662   12.330114    9.259207    0.000000    1.485000
   353  Cl    c    18.078672   10.087557    3.854654    0.000000    1.485000
   354  Sc    c     3.776248   -9.005260    1.800834    0.000000    3.000000
   355  Cl    c    12.759761   15.671876    1.661942    0.000000    1.485000
   356  Cl    c    -7.289802    1.421630    2.395483    0.000000    1.485000
   357  Cl    c    -4.464568   -4.427398    2.394048    0.000000    1.485000
   358  Cl    c    19.122251    6.583230    5.861049    0.000000    1.485000
   359  Cl    c    16.295464    8.824235   11.266027    0.000000    1.485000
   360  Cl    c    12.686454   -5.614211   10.435272    0.000000    1.485000
   361  Cl    c     1.297336    5.182905   16.652657    0.000000    1.485000
   362  Cl    c    10.528760   -8.023800    7.824083    0.000000    1.485000
   363  Cl    c    -0.780718   15.404990    7.839623    0.000000    1.485000
   364  Cl    c    11.973531    8.067304   -7.775222    0.000000    1.485000
   365  Cl    c    12.632117   -3.790837   -4.975674    0.000000    1.485000
   366  Cl    c    -0.457235    2.462869   15.840703    0.000000    1.485000
   367  Cl    c    -3.267757   11.932306   10.434694    0.000000    1.485000
   368  Cl    c     7.306401   -8.649774    8.424518    0.000000    1.485000
   369  Cl    c    10.147388   -7.266959   -2.382988    0.000000    1.485000
   370  Cl    c     2.433078   14.288704   12.452690    0.000000    1.485000
   371  Sc    c     0.953512    4.072399   -9.007364    0.000000    3.000000
   372  Cl    c    17.360200    0.261913   10.453267    0.000000    1.485000
   373  Cl    c     7.696976   -5.774553   13.245194    0.000000    1.485000
   374  Sc    c    14.948287   14.460303    1.852610    0.000000    3.000000
   375  Cl    c     4.136642   -0.682880   16.652988    0.000000    1.485000
   376  Cl    c    -0.788293   11.792678   13.240608    0.000000    1.485000
   377  Cl    c    16.642144   10.327149   -2.357086    0.000000    1.485000
   378  Cl    c    12.625103   -7.403948    0.424481    0.000000    1.485000
   379  Cl    c     9.931923   14.305470   12.468903    0.000000    1.485000
   380  Sc    c    14.058431    6.807723   -7.171273    0.000000    3.000000
   381  Sc    c    -6.582493    7.647664    9.015903    0.000000    3.000000
   382  Sc    c     4.730109   -8.545075   -1.798711    0.000000    3.000000
   383  Cl    c    19.464386    0.862800    3.046760    0.000000    1.485000
   384  Sc    c    12.117280   13.090244   12.664099    0.000000    3.000000
   385  Cl    c    11.708088    8.354556   15.859250    0.000000    1.485000
   386  Sc    c    18.723604    1.844166    9.060976    0.000000    3.000000
   387  Sc    c    13.067729    9.939761   14.467753    0.000000    3.000000
   388  Sc    c     3.743675   12.651091   -7.199046    0.000000    3.000000
   389  Sc    c     5.616785    9.952445   -9.001114    0.000000    3.000000
   390  Cl    c     5.256610    4.821986   17.850066    0.000000    1.485000
   391  Sc    c    -4.709715    1.329334   12.617000    0.000000    3.000000
   392  Sc    c    16.886941   -2.658504   -1.767259    0.000000    3.000000
   393  Cl    c    -6.896457    9.777281    1.608944    0.000000    1.485000
   394  Cl    c     0.214223    8.665474   -8.389929    0.000000    1.485000
   395  Cl    c    -2.229942   15.687772    1.621780    0.000000    1.485000
   396  Cl    c     5.867558   -3.033664   -8.388984    0.000000    1.485000
   397  Cl    c     9.116549   -0.547805   -9.222540    0.000000    1.485000
   398  Cl    c     5.982320   18.259653    5.847821    0.000000    1.485000
   399  Cl    c    11.630784   13.784408   -4.960110    0.000000    1.485000
   400  Sc    c    13.098340   -4.491676   12.642744    0.000000    3.000000
   401  Sc    c     7.439580    3.603142   18.048473    0.000000    3.000000
   402  Sc    c     3.781840   -1.783698   -9.010127    0.000000    3.000000
   403  Cl    c    -8.009205    4.262555    0.395432    0.000000    1.485000
   404  Sc    c    -6.585667   11.259844    3.613816    0.000000    3.000000
   405  Cl    c    -5.183673    2.023284   -5.007613    0.000000    1.485000
   406  Sc    c    -1.926324    9.913489   14.449130    0.000000    3.000000
   407  Cl    c    19.855873    7.344928    2.456638    0.000000    1.485000
   408  Sc    c     4.732067   -4.933138   -7.207069    0.000000    3.000000
   409  Sc    c    12.119426   16.702458    7.259032    0.000000    3.000000
   410  Sc    c    11.279135   -9.000807    1.814905    0.000000    3.000000
   411  Cl    c    17.030885   13.196697    2.456978    0.000000    1.485000
   412  Cl    c    -2.287214   -5.650404   10.408784    0.000000    1.485000
   413  Cl    c     2.648119   -3.667923   -7.804515    0.000000    1.485000
   414  Cl    c    15.526713   -0.628549   -5.776869    0.000000    1.485000
   415  Cl    c     3.490257   18.401030    3.032730    0.000000    1.485000
   416  Cl    c     2.436308   17.897359    7.049392    0.000000    1.485000
   417  Cl    c    -8.015487    0.653773    5.796281    0.000000    1.485000
   418  Cl    c    -2.358737   -3.825598   -5.008418    0.000000    1.485000
   419  Cl    c    19.854695    3.733460    7.859167    0.000000    1.485000
   420  Cl    c    -5.445290   13.141879    2.413224    0.000000    1.485000
   421  Cl    c     1.596922   -0.564375   -9.207573    0.000000    1.485000
   422  Cl    c     5.860742  -10.257690    2.411821    0.000000    1.485000
   423  Cl    c     5.968583   11.044639   16.654255    0.000000    1.485000
   424  Cl    c    17.280104    2.084917   -4.959221    0.000000    1.485000
   425  Cl    c    14.202438   15.437694    7.860732    0.000000    1.485000
   426  Sc    c    -5.598658   -2.711815   -1.814947    0.000000    3.000000
   427  Sc    c    15.893317    4.085677   14.465245    0.000000    3.000000
   428  Sc    c    -6.552583   -3.173488    1.785616    0.000000    3.000000
   429  Cl    c    -5.841283   10.279756   -2.399368    0.000000    1.485000
   430  Sc    c    -1.885850   -4.523352   12.616186    0.000000    3.000000
   431  Cl    c     2.380414   -3.406231   15.850710    0.000000    1.485000
   432  Cl    c     3.375154   -6.520065   -5.812600    0.000000    1.485000
   433  Cl    c     4.476070   -6.408341   13.852162    0.000000    1.485000
   434  Cl    c    -3.254923   15.545825    5.025888    0.000000    1.485000
   435  Cl    c    10.154084   -3.644413   -7.785797    0.000000    1.485000
   436  Cl    c     9.933136   17.916115    7.066122    0.000000    1.485000
   437  Cl    c    -5.190050   -5.195462    5.794056    0.000000    1.485000
   438  Cl    c    -2.363519   -7.436489    0.391081    0.000000    1.485000
   439  Cl    c    17.025286    5.973890   13.262023    0.000000    1.485000
   440  Cl    c    14.200065   11.826033   13.263714    0.000000    1.485000
   441  Cl    c    -6.167334   12.376214    5.819257    0.000000    1.485000
   442  Cl    c     9.861225   -3.371620   15.839003    0.000000    1.485000
   443  Cl    c    18.016746   -0.762417   -2.958455    0.000000    1.485000
   444  Cl    c     2.316043    5.656181  -10.393345    0.000000    1.485000
   445  Cl    c    14.804146    2.216987   -7.773335    0.000000    1.485000
   446  Cl    c     9.537568   16.786014   -2.962237    0.000000    1.485000
   447  Cl    c    -1.512058   14.647488   11.255551    0.000000    1.485000
   448  Sc    c    18.727269    9.068536   -1.748173    0.000000    3.000000
   449  Cl    c    13.371244   -6.646325   -2.974615    0.000000    1.485000
   450  Cl    c     9.803778    5.685054  -10.389725    0.000000    1.485000
   451  Sc    c    13.073050   17.162816    3.658727    0.000000    3.000000
   452  Cl    c     2.052058   16.780079   -2.985566    0.000000    1.485000
   453  Cl    c    -5.448525    5.922490   13.217526    0.000000    1.485000
   454  Cl    c     0.200064   -5.780915   13.214927    0.000000    1.485000
   455  Cl    c    11.618599   -0.656884   16.644161    0.000000    1.485000
   456  Cl    c    17.276412   -5.140602    5.840930    0.000000    1.485000
   457  Sc    c    11.234353   12.663003   -7.170710    0.000000    3.000000
   458  Cl    c    -7.283133    5.033916   -3.004404    0.000000    1.485000
   459  Cl    c    -6.169713    8.766288   11.220166    0.000000    1.485000
   460  Sc    c    20.599821    2.753400    1.850822    0.000000    3.000000
   461  Cl    c    -1.633122   -6.666307   -3.005515    0.000000    1.485000
   462  Cl    c    14.531349    2.502376   15.856513    0.000000    1.485000
   463  Cl    c    -1.231165    5.287528   -9.199133    0.000000    1.485000
   464  Cl    c    18.015358   -4.380436    2.439144    0.000000    1.485000
   465  Cl    c    19.124862   10.194546    0.458118    0.000000    1.485000
   466  Cl    c    19.467745    4.474252   -2.356383    0.000000    1.485000
   467  Cl    c    13.471889   14.675942   11.267864    0.000000    1.485000
   468  Cl    c     5.137640   -0.193063  -10.395921    0.000000    1.485000
   469  Cl    c     6.710455   19.022006    2.440796    0.000000    1.485000
   470  Cl    c    -7.931123    9.667397    5.007762    0.000000    1.485000
   471  Cl    c    -0.189870   -8.652135    8.406844    0.000000    1.485000
   472  Cl    c     3.428080   11.159000   -9.189922    0.000000    1.485000
   473  Cl    c    -9.059960    4.168225    3.784929    0.000000    1.485000
   474  Cl    c    -4.394734    2.820868   14.608468    0.000000    1.485000
   475  Sc    c    -6.549229    0.439191   -3.618849    0.000000    3.000000
   476  Cl    c    -3.408336   -7.532236    3.780673    0.000000    1.485000
   477  Cl    c    -1.570582   -3.031023   14.608347    0.000000    1.485000
   478  Cl    c    -3.404969   -0.312161   -7.019360    0.000000    1.485000
   479  Cl    c    -4.392060   13.645593   -1.597397    0.000000    1.485000
   480  Cl    c    15.250369    8.719796   14.661298    0.000000    1.485000
   481  Cl    c    20.904741    4.236118    3.853392    0.000000    1.485000
   482  Cl    c    13.406764   -2.999466   14.636471    0.000000    1.485000
   483  Cl    c    16.235320   -5.246291    9.235781    0.000000    1.485000
   484  Cl    c    -1.562868   11.404830   -7.000773    0.000000    1.485000
   485  Cl    c     4.926675   14.550934   14.648645    0.000000    1.485000
   486  Cl    c    15.253748   15.939069    3.855933    0.000000    1.485000
   487  Cl    c     4.930660   18.156714    9.244321    0.000000    1.485000
   488  Cl    c    18.415000    7.579321   -3.744242    0.000000    1.485000
   489  Cl    c     6.915931   -9.754355   -1.603804    0.000000    1.485000
   490  Cl    c     6.915533   -6.146172   -7.004513    0.000000    1.485000
   491  Cl    c    16.236843    5.587105   -6.964233    0.000000    1.485000
   492  Cl    c    13.411411   11.436634   -6.963892    0.000000    1.485000
   493  Sc    c    17.770332    1.383331   12.660987    0.000000    3.000000
   494  Sc    c    -8.426601   -0.469621    3.591739    0.000000    3.000000
   495  Cl    c    20.190370    1.632481   -0.355498    0.000000    1.485000
   496  Sc    c    -1.916433   17.153966    3.640561    0.000000    3.000000
   497  Cl    c     8.085825   -1.028817   17.848666    0.000000    1.485000
   498  Sc    c    11.298912   -1.774353   -9.002837    0.000000    3.000000
   499  Cl    c    10.988221   18.419448    3.048926    0.000000    1.485000
   500  Cl    c    -3.004867    8.037039   -7.799843    0.000000    1.485000
   501  Cl    c    -4.064481   -3.299114   12.413733    0.000000    1.485000
   502  Cl    c     3.370329  -10.125755   -0.404266    0.000000    1.485000
   503  Sc    c    16.884180   -6.273303    3.638021    0.000000    3.000000
   504  Cl    c    -7.290572   -2.187257    7.796884    0.000000    1.485000
   505  Cl    c    -4.005244   14.785063    8.429924    0.000000    1.485000
   506  Sc    c    -4.704788   12.169307   -3.601565    0.000000    3.000000
   507  Sc    c    15.930150   -6.734475    7.236617    0.000000    3.000000
   508  Cl    c    19.121447    2.972227   11.264284    0.000000    1.485000
   509  Cl    c    -1.170974   16.161665   -2.381514    0.000000    1.485000
   510  Sc    c     4.613989    9.458006   18.053646    0.000000    3.000000
   511  Cl    c    10.875814   -6.505430   -5.798042    0.000000    1.485000
   512  Cl    c    13.749253    5.318928   -9.165863    0.000000    1.485000
   513  Cl    c     8.056120    2.961792  -11.204868    0.000000    1.485000
   514  Sc    c    -2.874119   13.058265   12.645352    0.000000    3.000000
   515  Sc    c    12.230655   -8.537331   -1.779773    0.000000    3.000000
   516  Sc    c    -7.535322   10.797507    7.213794    0.000000    3.000000
   517  Cl    c     9.524380    2.343005   18.642620    0.000000    1.485000
   518  Cl    c     2.296778   -8.786206   11.213075    0.000000    1.485000
   519  Cl    c     6.698407    8.193657   18.645582    0.000000    1.485000
   520  Cl    c     5.126182  -11.025399    5.810264    0.000000    1.485000
   521  Cl    c    15.591166   13.432491   -3.743665    0.000000    1.485000
   522  Sc    c    -0.054561    3.588355   18.050719    0.000000    3.000000
   523  Cl    c    16.635605   -0.506736   13.856070    0.000000    1.485000
   524  Sc    c     9.393607   -9.913125    9.031830    0.000000    3.000000
   525  Cl    c     2.033982    2.329373   18.636548    0.000000    1.485000
   526  Cl    c     9.789688   -8.771662   11.227856    0.000000    1.485000
   527  Cl    c     8.888146   17.818247   10.457490    0.000000    1.485000
   528  Sc    c    -8.422359    3.143512   -1.812200    0.000000    3.000000
   529  Cl    c    -7.928265    6.054746   10.406618    0.000000    1.485000
   530  Cl    c    15.519157   -7.853969    5.029542    0.000000    1.485000
   531  Cl    c     2.641891  -10.886369    3.003792    0.000000    1.485000
   532  Cl    c     9.151612   13.924087   -7.772593    0.000000    1.485000
   533  Sc    c    -9.376339    2.681388    1.787700    0.000000    3.000000
   534  Cl    c    -6.886855    2.552605   12.411879    0.000000    1.485000
   535  Sc    c    -3.719930   -5.413642   -3.619156    0.000000    3.000000
   536  Cl    c    16.578958   -4.140618   -3.766259    0.000000    1.485000
   537  Sc    c    -3.760675   -1.820712   14.420645    0.000000    3.000000
   538  Sc    c     1.895351   -9.916817    9.011704    0.000000    3.000000
   539  Cl    c    10.922761   11.172111   -9.164978    0.000000    1.485000
   540  Sc    c    -5.597563   -6.322416    3.590209    0.000000    3.000000
   541  Cl    c    20.188734   -1.978667    5.048355    0.000000    1.485000
   542  Cl    c     6.307022    1.711120   19.240239    0.000000    1.485000
   543  Sc    c    -2.863617   16.673051    7.233088    0.000000    3.000000
   544  Sc    c    12.235375   -4.914179   -7.186405    0.000000    3.000000
   545  Cl    c    12.755168    4.842785   17.868724    0.000000    1.485000
   546  Cl    c    13.818792   16.180706   -2.353007    0.000000    1.485000
   547  Cl    c     4.227330   19.170033   -0.366513    0.000000    1.485000
   548  Cl    c    -3.275052    8.315652   15.830923    0.000000    1.485000
   549  Cl    c    10.135183  -10.876490    3.017743    0.000000    1.485000
   550  Sc    c    15.903569   14.921873   -1.746972    0.000000    3.000000
   551  Cl    c    -4.010230   11.162313   13.829882    0.000000    1.485000
   552  Cl    c    10.862059  -10.115739   -0.389865    0.000000    1.485000
   553  Cl    c     1.659761   13.910066   -7.788966    0.000000    1.485000
   554  Cl    c     5.221140    8.817241  -11.197176    0.000000    1.485000
   555  Cl    c    11.965967   -6.379735   13.839642    0.000000    1.485000
   556  Sc    c    13.111318    9.959880   -8.971896    0.000000    3.000000
   557  Sc    c     7.457059   18.057715   -3.567607    0.000000    3.000000
   558  Cl    c     1.393957   17.798466   10.443504    0.000000    1.485000
   559  Cl    c     2.432297   10.676763   17.855579    0.000000    1.485000
   560  Cl    c     0.600363   -1.043143   17.839554    0.000000    1.485000
   561  Cl    c     6.257257   -9.137834   12.432509    0.000000    1.485000
   562  Sc    c    16.890791    0.957653   -7.169014    0.000000    3.000000
   563  Sc    c    20.599628   -0.857988    7.255340    0.000000    3.000000
   564  Sc    c     2.778360   -2.266868   18.054211    0.000000    3.000000
   565  Sc    c     6.567760   -7.671012   14.444234    0.000000    3.000000
   566  Cl    c    19.465096   -2.746852    8.452745    0.000000    1.485000
   567  Cl    c     8.885124   14.206186   15.860612    0.000000    1.485000
   568  Cl    c    -3.336369   13.746825   -4.990908    0.000000    1.485000
   569  Cl    c     3.480394    7.563201   19.242004    0.000000    1.485000
   570  Cl    c    15.193557    8.699114   -8.359437    0.000000    1.485000
   571  Cl    c     9.930843   10.694679   17.870406    0.000000    1.485000
   572  Cl    c    -7.680915   -1.449174   -2.418456    0.000000    1.485000
   573  Cl    c    -6.952216   -4.297497   -0.419942    0.000000    1.485000
   574  Cl    c     7.055164   16.930909   -5.771158    0.000000    1.485000
   575  Cl    c    -8.665616    8.903205    8.407306    0.000000    1.485000
   576  Cl    c     0.558468    2.944239  -11.207741    0.000000    1.485000
   577  Cl    c    -1.500883   18.261421    5.848647    0.000000    1.485000
   578  Sc    c     2.743935   15.776668   14.455531    0.000000    3.000000
   579  Cl    c    13.378326   -3.026461   -8.377657    0.000000    1.485000
   580  Cl    c     6.976988   11.536325  -10.384008    0.000000    1.485000
   581  Cl    c     4.882763   14.536227   -8.387256    0.000000    1.485000
   582  Cl    c    -8.732785   -1.951420    1.589534    0.000000    1.485000
   583  Sc    c    -1.871457    9.926409   -9.006083    0.000000    3.000000
   584  Cl    c    -4.453290    2.795849   -8.407243    0.000000    1.485000
   585  Cl    c    -1.626849   -3.053326   -8.407077    0.000000    1.485000
   586  Sc    c    17.779605   12.219478   -3.552342    0.000000    3.000000
   587  Cl    c    16.303556   16.045490    0.459920    0.000000    1.485000
   588  Cl    c    13.475518   18.286239    5.863983    0.000000    1.485000
   589  Cl    c    -5.843683   -0.559984   13.809193    0.000000    1.485000
   590  Cl    c    -5.100101   11.038256   -5.803161    0.000000    1.485000
   591  Sc    c     5.567013    6.307202   19.852876    0.000000    3.000000
   592  Cl    c    16.575802   -7.754160    1.637497    0.000000    1.485000
   593  Sc    c    10.270391   -2.247068   18.046710    0.000000    3.000000
   594  Cl    c     4.424313  -10.020583   -3.801259    0.000000    1.485000
   595  Cl    c    -2.233548    4.808475   17.840749    0.000000    1.485000
   596  Cl    c     9.082211  -11.383778    7.024655    0.000000    1.485000
   597  Cl    c    14.796348   -8.621714    8.434207    0.000000    1.485000
   598  Cl    c     1.388980   14.187967   15.846197    0.000000    1.485000
   599  Sc    c    15.939811    4.107022   -8.972322    0.000000    3.000000
   600  Sc    c     4.629381   20.295290    1.839178    0.000000    3.000000
   601  Sc    c    -5.591219    0.903420   -7.217523    0.000000    3.000000
   602  Sc    c    21.551650   -0.395775    3.655374    0.000000    3.000000
   603  Cl    c    -1.520992   11.033442   16.650335    0.000000    1.485000
   604  Cl    c    13.359310  -10.255910    2.422738    0.000000    1.485000
   605  Sc    c    10.242832   15.793584   14.469411    0.000000    3.000000
   606  Cl    c    -0.776080   19.030283    2.436254    0.000000    1.485000
   607  Cl    c    -9.063054    0.558556    9.188349    0.000000    1.485000
   608  Cl    c    12.645737   -0.178467  -10.387864    0.000000    1.485000
   609  Cl    c    -6.235989   -5.291263    9.186376    0.000000    1.485000
   610  Cl    c    -9.057380    7.779407   -1.614386    0.000000    1.485000
   611  Cl    c    -7.224481   12.279386    9.212637    0.000000    1.485000
   612  Sc    c    -7.534640    7.183373   12.615212    0.000000    3.000000
   613  Cl    c    -6.228510    5.538824   -7.017870    0.000000    1.485000
   614  Cl    c    18.076837    2.868965   14.659575    0.000000    1.485000
   615  Cl    c    20.905962    0.627167    9.255637    0.000000    1.485000
   616  Cl    c    -0.580469   -9.774568   -1.619854    0.000000    1.485000
   617  Cl    c     7.752666    5.090805   20.042469    0.000000    1.485000
   618  Cl    c     4.082988  -11.126362    9.201594    0.000000    1.485000
   619  Cl    c    -0.576283   -6.163570   -7.021552    0.000000    1.485000
   620  Cl    c    12.425684   14.571996   14.663517    0.000000    1.485000
   621  Cl    c    20.906850    7.846829   -1.547606    0.000000    1.485000
   622  Cl    c    12.427266   18.182259    9.260187    0.000000    1.485000
   623  Cl    c    19.068617   -3.872993   -1.566346    0.000000    1.485000
   624  Cl    c    18.083368   13.698462   -1.547441    0.000000    1.485000
   625  Cl    c     4.094869    3.316325  -12.406119    0.000000    1.485000
   626  Sc    c     2.749667   19.386162    9.050418    0.000000    3.000000
[...]
   1631 x          8.267925      8.265186    -0.002738    Cartesian   -0.03
   1631 y         17.048612     17.046518    -0.002094    Cartesian   -0.01
   1631 z         -9.021586     -9.019458     0.002128    Cartesian   -0.02
   1632 x         -7.827857     -7.822347     0.005510    Cartesian   -0.07
   1632 y          2.621925      2.621342    -0.000582    Cartesian   -0.02
   1632 z         15.863877     15.859913    -0.003964    Cartesian   -0.02
   1633 x         -5.647521     -5.645909     0.001613    Cartesian   -0.03
   1633 y         16.717605     16.713419    -0.004186    Cartesian   -0.03
   1633 z         -2.950570     -2.948721     0.001849    Cartesian   -0.06
   1634 x         -2.909659     -2.910706    -0.001047    Cartesian    0.04
   1634 y        -10.025610    -10.024291     0.001319    Cartesian   -0.01
   1634 z         -3.671874     -3.673978    -0.002104    Cartesian    0.06
   1635 x         23.246235     23.243700    -0.002534    Cartesian   -0.01
   1635 y          9.860306      9.858181    -0.002124    Cartesian   -0.02
   1635 z          1.815725      1.817973     0.002248    Cartesian    0.12
   1636 x         10.534617     10.535411     0.000794    Cartesian    0.01
   1636 y         20.352288     20.352406     0.000118    Cartesian    0.00
   1636 z         11.217620     11.216375    -0.001244    Cartesian   -0.01
   1637 x         17.590611     17.588797    -0.001814    Cartesian   -0.01
   1637 y         17.953166     17.949887    -0.003280    Cartesian   -0.02
   1637 z          7.221604      7.223229     0.001626    Cartesian    0.02
   1638 x          5.679690      5.680144     0.000454    Cartesian    0.01
   1638 y        -13.091889    -13.085577     0.006312    Cartesian   -0.05
   1638 z         -2.443062     -2.440273     0.002789    Cartesian   -0.11
   1639 x         17.842652     17.840959    -0.001693    Cartesian   -0.01
   1639 y         -3.592372     -3.588524     0.003848    Cartesian   -0.11
   1639 z         -7.812982     -7.808528     0.004454    Cartesian   -0.06
   1640 x         19.023394     19.020523    -0.002871    Cartesian   -0.02
   1640 y         13.630737     13.630687    -0.000050    Cartesian   -0.00
   1640 z         -4.995557     -4.994862     0.000695    Cartesian   -0.01
   1641 x         -4.642618     -4.644575    -0.001957    Cartesian    0.04
   1641 y        -10.869045    -10.868329     0.000717    Cartesian   -0.01
   1641 z          2.945581      2.946921     0.001341    Cartesian    0.05
   1642 x          5.860810      5.857416    -0.003393    Cartesian   -0.06
   1642 y          7.258618      7.258343    -0.000275    Cartesian   -0.00
   1642 z         22.006196     21.999634    -0.006563    Cartesian   -0.03
   1643 x        -12.487419    -12.484971     0.002449    Cartesian   -0.02
   1643 y          3.975561      3.973506    -0.002055    Cartesian   -0.05
   1643 z          5.040829      5.039896    -0.000933    Cartesian   -0.02
   1644 x         19.683305     19.681502    -0.001803    Cartesian   -0.01
   1644 y          8.129989      8.129466    -0.000524    Cartesian   -0.01
   1644 z         -7.794260     -7.792622     0.001639    Cartesian   -0.02
   1645 x        -10.958153    -10.953046     0.005107    Cartesian   -0.05
   1645 y          2.724563      2.722328    -0.002235    Cartesian   -0.08
   1645 z         11.150162     11.148454    -0.001709    Cartesian   -0.02
   1646 x         11.820698     11.818986    -0.001713    Cartesian   -0.01
   1646 y          4.915462      4.916951     0.001488    Cartesian    0.03
   1646 z         21.315519     21.312367    -0.003151    Cartesian   -0.01
   1647 x         -3.798026     -3.802317    -0.004291    Cartesian    0.11
   1647 y          7.592540      7.590939    -0.001602    Cartesian   -0.02
   1647 z         19.193229     19.193840     0.000610    Cartesian    0.00
   1648 x         10.976106     10.973175    -0.002932    Cartesian   -0.03
   1648 y        -13.546123    -13.549478    -0.003354    Cartesian    0.02
   1648 z          5.067870      5.067132    -0.000738    Cartesian   -0.01
   1649 x         10.531056     10.531553     0.000497    Cartesian    0.00
   1649 y         16.740461     16.741097     0.000635    Cartesian    0.00
   1649 z         16.620526     16.619458    -0.001068    Cartesian   -0.01
   1650 x         20.008772     20.001826    -0.006946    Cartesian   -0.03
   1650 y         -3.943968     -3.940121     0.003846    Cartesian   -0.10
   1650 z         -5.015765     -5.014028     0.001737    Cartesian   -0.03
   1651 x         16.816382     16.813808    -0.002574    Cartesian   -0.02
   1651 y          2.323319      2.322482    -0.000836    Cartesian   -0.04
   1651 z         18.708304     18.702761    -0.005543    Cartesian   -0.03
   1652 x         15.086958     15.087320     0.000362    Cartesian    0.00
   1652 y          5.091703      5.091694    -0.000009    Cartesian   -0.00
   1652 z         19.922873     19.920935    -0.001939    Cartesian   -0.01
   1653 x         20.305915     20.300352    -0.005563    Cartesian   -0.03
   1653 y         -5.417915     -5.413822     0.004094    Cartesian   -0.08
   1653 z         10.505248     10.503592    -0.001656    Cartesian   -0.02
   1654 x          0.360217      0.360474     0.000257    Cartesian    0.07
   1654 y         -6.237506     -6.237421     0.000085    Cartesian   -0.00
   1654 z        -10.467407    -10.464700     0.002706    Cartesian   -0.03
   1655 x          5.649482      5.648492    -0.000990    Cartesian   -0.02
   1655 y        -13.915424    -13.910905     0.004519    Cartesian   -0.03
   1655 z          7.849298      7.847954    -0.001345    Cartesian   -0.02
   1656 x         22.505776     22.503513    -0.002262    Cartesian   -0.01
   1656 y         -1.334181     -1.332986     0.001195    Cartesian   -0.09
   1656 z         -2.392840     -2.391803     0.001037    Cartesian   -0.04
   1657 x         21.849425     21.842248    -0.007178    Cartesian   -0.03
   1657 y          7.778393      7.778576     0.000183    Cartesian    0.00
   1657 z         -4.997043     -4.995269     0.001774    Cartesian   -0.04
   1658 x         12.260926     12.262252     0.001325    Cartesian    0.01
   1658 y         10.944046     10.943927    -0.000119    Cartesian   -0.00
   1658 z         19.924360     19.923496    -0.000863    Cartesian   -0.00
   1659 x         21.509714     21.508604    -0.001110    Cartesian   -0.01
   1659 y          5.405044      5.403999    -0.001045    Cartesian   -0.02
   1659 z         13.836086     13.832734    -0.003352    Cartesian   -0.02
   1660 x         21.402020     21.400346    -0.001674    Cartesian   -0.01
   1660 y         -5.473882     -5.472211     0.001671    Cartesian   -0.03
   1660 z          7.199910      7.200534     0.000624    Cartesian    0.01
   1661 x         19.316975     19.312525    -0.004450    Cartesian   -0.02
   1661 y          8.544963      8.546583     0.001620    Cartesian    0.02
   1661 z         15.928362     15.926426    -0.001937    Cartesian   -0.01
   1662 x         11.164320     11.165200     0.000880    Cartesian    0.01
   1662 y         14.028006     14.026820    -0.001186    Cartesian   -0.01
   1662 z         18.711277     18.708231    -0.003045    Cartesian   -0.02
   1663 x          8.686841      8.682235    -0.004606    Cartesian   -0.05
   1663 y          1.406274      1.408103     0.001829    Cartesian    0.13
   1663 z         22.004710     21.997988    -0.006722    Cartesian   -0.03
   1664 x         23.575735     23.570782    -0.004953    Cartesian   -0.02
   1664 y         -1.629849     -1.629383     0.000465    Cartesian   -0.03
   1664 z          3.709697      3.710618     0.000922    Cartesian    0.02
   1665 x          0.993481      0.993854     0.000373    Cartesian    0.04
   1665 y         -8.949961     -8.945014     0.004946    Cartesian   -0.06
   1665 z         -8.376656     -8.370232     0.006424    Cartesian   -0.08
   1666 x         -2.054384     -2.056030    -0.001647    Cartesian    0.08
   1666 y         19.271455     19.273462     0.002007    Cartesian    0.01
   1666 z         -3.632944     -3.634787    -0.001843    Cartesian    0.05
   1667 x          9.256864      9.256625    -0.000239    Cartesian   -0.00
   1667 y          3.085734      3.085823     0.000089    Cartesian    0.00
   1667 z        -14.444701    -14.447762    -0.003061    Cartesian    0.02
   1668 x         24.342868     24.340827    -0.002041    Cartesian   -0.01
   1668 y          6.776353      6.775257    -0.001096    Cartesian   -0.02
   1668 z          3.028788      3.026841    -0.001946    Cartesian   -0.06
   1669 x         20.420203     20.416300    -0.003904    Cartesian   -0.02
   1669 y         15.712649     15.708108    -0.004541    Cartesian   -0.03
   1669 z          1.817211      1.820018     0.002807    Cartesian    0.15
   1670 x         16.494505     16.491744    -0.002761    Cartesian   -0.02
   1670 y         18.009133     18.008713    -0.000420    Cartesian   -0.00
   1670 z         10.526942     10.526039    -0.000904    Cartesian   -0.01
   1671 x         23.579296     23.572904    -0.006392    Cartesian   -0.03
   1671 y          1.981978      1.981023    -0.000955    Cartesian   -0.05
   1671 z         -1.693209     -1.690781     0.002428    Cartesian   -0.14
   1672 x         -8.480675     -8.479488     0.001187    Cartesian   -0.01
   1672 y         15.346295     15.341457    -0.004838    Cartesian   -0.03
   1672 z          7.856729      7.854201    -0.002528    Cartesian   -0.03
   1673 x          0.868658      0.867395    -0.001264    Cartesian   -0.15
   1673 y         13.462558     13.460713    -0.001844    Cartesian   -0.01
   1673 z         19.210465     19.207507    -0.002958    Cartesian   -0.02
   1674 x         -7.484613     -7.483038     0.001575    Cartesian   -0.02
   1674 y          8.607070      8.606964    -0.000106    Cartesian   -0.00
   1674 z         -8.372198     -8.366831     0.005367    Cartesian   -0.06
   1675 x         20.005211     19.997475    -0.007736    Cartesian   -0.04
   1675 y         -7.555795     -7.551429     0.004366    Cartesian   -0.06
   1675 z          0.387141      0.387162     0.000021    Cartesian    0.01
   1676 x          4.701435      4.702100     0.000666    Cartesian    0.01
   1676 y         11.706469     11.705498    -0.000971    Cartesian   -0.01
   1676 z        -13.228666    -13.223981     0.004685    Cartesian   -0.04
   1677 x          2.508696      2.510685     0.001989    Cartesian    0.08
   1677 y         14.846388     14.843624    -0.002764    Cartesian   -0.02
   1677 z        -11.136390    -11.132958     0.003432    Cartesian   -0.03
   1678 x         12.271610     12.269056    -0.002554    Cartesian   -0.02
   1678 y         21.779526     21.774091    -0.005435    Cartesian   -0.02
   1678 z          3.715641      3.716553     0.000911    Cartesian    0.02
   1679 x         11.076150     11.076941     0.000791    Cartesian    0.01
   1679 y         -6.862865     -6.858436     0.004429    Cartesian   -0.06
   1679 z         17.991458     17.987845    -0.003613    Cartesian   -0.02
   1680 x         15.101202     15.099744    -0.001458    Cartesian   -0.01
   1680 y         19.539009     19.536144    -0.002865    Cartesian   -0.01
   1680 z         -1.688751     -1.686580     0.002171    Cartesian   -0.13
   1681 x          2.819889      2.819017    -0.000873    Cartesian   -0.03
   1681 y        -11.674906    -11.671351     0.003555    Cartesian   -0.03
   1681 z         13.253691     13.250739    -0.002952    Cartesian   -0.02
   1682 x         16.857274     16.856957    -0.000317    Cartesian   -0.00
   1682 y         13.982333     13.980734    -0.001599    Cartesian   -0.01
   1682 z         -7.792774     -7.791438     0.001336    Cartesian   -0.02
   1683 x          0.989919      0.990061     0.000141    Cartesian    0.01
   1683 y        -12.561788    -12.556699     0.005088    Cartesian   -0.04
   1683 z         -2.973750     -2.969685     0.004065    Cartesian   -0.14
   1684 x         14.342465     14.337881    -0.004584    Cartesian   -0.03
   1684 y         -6.686587     -6.682420     0.004167    Cartesian   -0.06
   1684 z         16.598832     16.594983    -0.003849    Cartesian   -0.02
   1685 x         -8.484236     -8.482478     0.001758    Cartesian   -0.02
   1685 y         11.734468     11.730160    -0.004308    Cartesian   -0.04
   1685 z         13.259635     13.254485    -0.005150    Cartesian   -0.04
   1686 x         -5.306091     -5.304438     0.001652    Cartesian   -0.03
   1686 y         -8.980125     -8.979591     0.000534    Cartesian   -0.01
   1686 z         11.147190     11.144871    -0.002320    Cartesian   -0.02
   1687 x          1.764148      1.763202    -0.000946    Cartesian   -0.05
   1687 y          3.068060      3.067570    -0.000490    Cartesian   -0.02
   1687 z        -14.460450    -14.458831     0.001619    Cartesian   -0.01
   1688 x         -3.572659     -3.569317     0.003342    Cartesian   -0.09
   1688 y        -11.164713    -11.158734     0.005979    Cartesian   -0.05
   1688 z          9.048118      9.043620    -0.004498    Cartesian   -0.05
   1689 x         17.172057     17.165723    -0.006334    Cartesian   -0.04
   1689 y         -8.927104     -8.922569     0.004535    Cartesian   -0.05
   1689 z         11.194439     11.191455    -0.002985    Cartesian   -0.03
   1690 x        -10.314206    -10.312446     0.001760    Cartesian   -0.02
   1690 y         10.847587     10.846355    -0.001232    Cartesian   -0.01
   1690 z         -2.967805     -2.965008     0.002798    Cartesian   -0.09
   1691 x         10.001412     10.001003    -0.000409    Cartesian   -0.00
   1691 y         14.864061     14.862297    -0.001765    Cartesian   -0.01
   1691 z        -11.120640    -11.117084     0.003556    Cartesian   -0.03
   1692 x         -0.743066     -0.740821     0.002245    Cartesian   -0.30
   1692 y        -13.405230    -13.399273     0.005957    Cartesian   -0.04
   1692 z          3.643725      3.640839    -0.002886    Cartesian   -0.08
   1693 x        -12.050753    -12.046702     0.004051    Cartesian   -0.03
   1693 y          6.392318      6.393605     0.001288    Cartesian    0.02
   1693 z          9.052576      9.048618    -0.003958    Cartesian   -0.04
   1694 x          0.353094      0.353265     0.000170    Cartesian    0.05
   1694 y        -13.461159    -13.458612     0.002547    Cartesian   -0.02
   1694 z          0.338406      0.338429     0.000023    Cartesian    0.01
   1695 x          7.264741      7.265491     0.000750    Cartesian    0.01
   1695 y         16.564183     16.561647    -0.002537    Cartesian   -0.02
   1695 z         18.013152     18.011719    -0.001434    Cartesian   -0.01
   1696 x        -12.047191    -12.043988     0.003203    Cartesian   -0.03
   1696 y         10.004145     10.003732    -0.000412    Cartesian   -0.00
   1696 z          3.649670      3.647444    -0.002226    Cartesian   -0.06
   1697 x         -2.835734     -2.836251    -0.000517    Cartesian    0.02
   1697 y         -3.582046     -3.581358     0.000688    Cartesian   -0.02
   1697 z         18.659569     18.654420    -0.005149    Cartesian   -0.03
   1698 x         -5.661766     -5.661014     0.000751    Cartesian   -0.01
   1698 y          2.270298      2.269252    -0.001046    Cartesian   -0.05
   1698 z         18.661055     18.654237    -0.006818    Cartesian   -0.04
   1699 x          8.994667      8.994623    -0.000044    Cartesian   -0.00
   1699 y         10.767806     10.768230     0.000423    Cartesian    0.00
   1699 z         21.317005     21.313779    -0.003226    Cartesian   -0.02
   1700 x         -0.732383     -0.731711     0.000672    Cartesian   -0.09
   1700 y         -2.569750     -2.567931     0.001820    Cartesian   -0.07
   1700 z        -12.564993    -12.562196     0.002797    Cartesian   -0.02
   1701 x         -4.894659     -4.894152     0.000508    Cartesian   -0.01
   1701 y         10.676492     10.674761    -0.001731    Cartesian   -0.02
   1701 z         17.980167     17.977865    -0.002302    Cartesian   -0.01
   1702 x         12.072212     12.070141    -0.002071    Cartesian   -0.02
   1702 y        -13.602090    -13.599865     0.002225    Cartesian   -0.02
   1702 z          1.762532      1.762743     0.000211    Cartesian    0.01
   1703 x         -3.558414     -3.557347     0.001067    Cartesian   -0.03
   1703 y          3.282593      3.282533    -0.000060    Cartesian   -0.00
   1703 z        -12.563507    -12.560681     0.002826    Cartesian   -0.02
   1704 x         22.502214     22.499868    -0.002346    Cartesian   -0.01
   1704 y         -4.946008     -4.944038     0.001970    Cartesian   -0.04
   1704 z          3.010066      3.010173     0.000107    Cartesian    0.00
   1705 x          1.194125      1.192432    -0.001693    Cartesian   -0.14
   1705 y          1.388600      1.392475     0.003875    Cartesian    0.28
   1705 z         21.988960     21.986884    -0.002076    Cartesian   -0.01
   1706 x         10.312605     10.313636     0.001031    Cartesian    0.01
   1706 y        -11.657233    -11.657023     0.000210    Cartesian   -0.00
   1706 z         13.269440     13.265070    -0.004370    Cartesian   -0.03
   1707 x         24.339307     24.337235    -0.002072    Cartesian   -0.01
   1707 y          3.164527      3.163309    -0.001218    Cartesian   -0.04
   1707 z          8.431694      8.428750    -0.002943    Cartesian   -0.03
   1708 x         16.490944     16.487881    -0.003063    Cartesian   -0.02
   1708 y         14.397306     14.397438     0.000132    Cartesian    0.00
   1708 z         15.929848     15.927997    -0.001851    Cartesian   -0.01
   1709 x         -3.817551     -3.817167     0.000384    Cartesian   -0.01
   1709 y         17.604486     17.598571    -0.005915    Cartesian   -0.03
   1709 z         13.276871     13.272225    -0.004646    Cartesian   -0.03
   1710 x         15.342087     15.335657    -0.006431    Cartesian   -0.04
   1710 y         -9.813985     -9.810311     0.003674    Cartesian   -0.04
   1710 z         -5.033001     -5.031236     0.001765    Cartesian   -0.04
   1711 x         24.976160     24.970002    -0.006159    Cartesian   -0.02
   1711 y          4.063928      4.066811     0.002883    Cartesian    0.07
   1711 z          5.119578      5.118464    -0.001113    Cartesian   -0.02
--------------------------------------------------------------------------------


  Time to end of optimisation  =      662.3609 seconds


  Peak dynamic memory used =     426.26 MB 


  Timing analysis for GULP :

--------------------------------------------------------------------------------
  Task / Subroutine                                          Time (Seconds)
--------------------------------------------------------------------------------
  Calculation of reciprocal space energy and derivatives          0.0133
  Calculation of real space energy and derivatives                0.3654
  Calculation for region 1 energy and derivatives (2-b)         203.6321
  Calculation for region 2a energy                               80.3784
  Calculation for region 2b energy                                0.0125
  Calculation and manipulation of Hessian matrix                  0.1326
  Calculation of matrix inversion                               375.3782
  Symmetry generation of equivalent positions                     0.0002
  Global summation overhead                                       0.0001
--------------------------------------------------------------------------------
  Total CPU time                                                662.3610
--------------------------------------------------------------------------------


  Dump file written as ScCl3.grs



  **** GULP has completed with   2 warnings - beware! ****

  Job Finished at 18:56.06  7th February   2022                               

