********************************************************************************
*                       GENERAL UTILITY LATTICE PROGRAM                        *
*                                 Julian Gale                                  *
*                       Curtin Institute for Computation                       *
*                    School of Molecular and Life Sciences                     *
*                    Curtin University, Western Australia                      *
********************************************************************************
* Version = 5.2.0 * Last modified =   1st June 2020                            *
********************************************************************************
*  optimise     - perform optimisation run                                     *
*  conp         - constant pressure calculation                                *
*  property     - calculate properties for final geometry                      *
*  defect       - perform defect calculation after bulk run                    *
*  compare      - compare initial and final structures                         *
********************************************************************************

  Job Started  at 18:45.35  7th February   2022                               

  Number of CPUs =     1


  Total number of configurations input =      1

********************************************************************************
*  Input for Configuration =   1                                               *
********************************************************************************

  Formula = Sc2Cl6                                                      

  Number of irreducible atoms/shells =      14


  Total number atoms/shells =      14

  Dimensionality = 3               :  Bulk   



  Cartesian lattice vectors (Angstroms) :

        7.453000    0.000000    0.000000
        4.624520    5.844744    0.000000
        4.624520    2.237970    5.399307

  Cell parameters (Angstroms/Degrees):

  a =       7.4530    alpha =  51.6480
  b =       7.4530    beta  =  51.6480
  c =       7.4530    gamma =  51.6480

  Initial cell volume =         235.198534 Angs**3

  Temperature of configuration =   0.00     K 

  Pressure of configuration =         0.000 GPa 

  Fractional coordinates of asymmetric unit :

--------------------------------------------------------------------------------
   No.  Atomic       x           y          z         Charge      Occupancy
        Label      (Frac)      (Frac)     (Frac)        (e)         (Frac)  
--------------------------------------------------------------------------------
      1 Sc    c    0.333900    0.333900    0.333900     3.00000    1.000000    
      2 Sc    c    0.666100 *  0.666100 *  0.666100 *   3.00000    1.000000    
      3 Cl    c    0.073700 *  0.443900 *  0.705300 *   1.48500    1.000000    
      4 Cl    c    0.294700 *  0.926300 *  0.556100 *   1.48500    1.000000    
      5 Cl    c    0.443900 *  0.705300 *  0.073700 *   1.48500    1.000000    
      6 Cl    c    0.556100 *  0.294700 *  0.926300 *   1.48500    1.000000    
      7 Cl    c    0.705300 *  0.073700 *  0.443900 *   1.48500    1.000000    
      8 Cl    c    0.926300 *  0.556100 *  0.294700 *   1.48500    1.000000    
      9 Cl    s    0.073700 *  0.443900 *  0.705300 *  -2.48500    1.000000    
     10 Cl    s    0.294700 *  0.926300 *  0.556100 *  -2.48500    1.000000    
     11 Cl    s    0.443900 *  0.705300 *  0.073700 *  -2.48500    1.000000    
     12 Cl    s    0.556100 *  0.294700 *  0.926300 *  -2.48500    1.000000    
     13 Cl    s    0.705300 *  0.073700 *  0.443900 *  -2.48500    1.000000    
     14 Cl    s    0.926300 *  0.556100 *  0.294700 *  -2.48500    1.000000    
--------------------------------------------------------------------------------



********************************************************************************
*  General input information                                                   *
********************************************************************************

  Species output for all configurations : 

--------------------------------------------------------------------------------
  Species    Type    Atomic    Atomic    Charge       Radii (Angs)     Library
                     Number     Mass       (e)     Cova   Ionic  VDW   Symbol
--------------------------------------------------------------------------------
    Sc       Core       21      44.96   3.000000   1.440  0.000  2.150          
    Cl       Core       17      35.45   1.485000   0.990  0.000  1.650          
    Cl       Shell      17       0.00  -2.485000   0.990  0.000  1.650          
--------------------------------------------------------------------------------


  Lattice summation method               =    Ewald          (3-D)
                                         =    Parry          (2-D)
                                         =    Saunders et al (1-D)
  Accuracy factor for lattice sums       =   12.000


  Analytic derivatives to be used

  Time limit = Infinity

  Maximum range for interatomic potentials =    100000.000000 Angstroms

  General interatomic potentials :

--------------------------------------------------------------------------------
Atom  Types   Potential      Parameter       Value         Units   Cutoffs(Ang)
  1     2                                                            Min /  Max 
--------------------------------------------------------------------------------
Cl   c Cl   s Spring (c-s)  Spring k 2       36.070000    eV*Ang^-2 0.000  0.800
                            Spring k 4       0.0000000    eV*Ang^-4 
--------------------------------------------------------------------------------
Sc   c Cl   s Buckingham    Buckingham A     2456.2200    eV        0.000 12.000
                            Buckingham rho  0.31470000    Ang       
                            Buckingham C     0.0000000    eV*Ang^6  
--------------------------------------------------------------------------------
Cl   s Cl   s Buckingham    Buckingham A     1227.2000    eV        0.000 12.000
                            Buckingham rho  0.32100000    Ang       
                            Buckingham C     14.530000    eV*Ang^6  
--------------------------------------------------------------------------------

********************************************************************************
*  Output for configuration   1                                                *
********************************************************************************


  Components of energy : 

--------------------------------------------------------------------------------
  Interatomic potentials     =          10.39244711 eV    
  Monopole - monopole (real) =         -30.86300284 eV    
  Monopole - monopole (recip)=         -65.52201623 eV    
  Monopole - monopole (total)=         -96.38501907 eV    
--------------------------------------------------------------------------------
  Total lattice energy       =         -85.99257196 eV    
--------------------------------------------------------------------------------
  Total lattice energy       =           -8296.9687 kJ/(mole unit cells)
--------------------------------------------------------------------------------


  Number of variables =       45

  Maximum number of calculations  =          1000
  Maximum Hessian update interval =            10
  Maximum step size               =   1.000000000
  Maximum parameter tolerance     =   0.000010000
  Maximum function  tolerance     =   0.000010000
  Maximum gradient  tolerance     =   0.001000000
  Maximum gradient  component     =   0.010000000

  Symmetry not applied to optimisation

  Cell parameters to be optimised using strains

  Newton-Raphson optimiser to be used

  BFGS hessian update to be used

  Lower half triangular hessian to be used

  Start of bulk optimisation :

  Cycle:      0 Energy:       -85.992572  Gnorm:      8.922860  CPU:    0.031
  ** Hessian calculated **
  Cycle:      1 Energy:       -91.630693  Gnorm:      3.248521  CPU:    0.068
  ** Hessian calculated **
  Cycle:      2 Energy:       -93.407926  Gnorm:      0.241259  CPU:    0.113
  Cycle:      3 Energy:       -93.727483  Gnorm:      0.379189  CPU:    0.148
  Cycle:      4 Energy:       -93.872131  Gnorm:      0.419846  CPU:    0.178
  Cycle:      5 Energy:       -93.916106  Gnorm:      0.216759  CPU:    0.216
  Cycle:      6 Energy:       -93.955402  Gnorm:      0.236635  CPU:    0.254
  Cycle:      7 Energy:       -94.003608  Gnorm:      0.337075  CPU:    0.293
  Cycle:      8 Energy:       -94.063864  Gnorm:      0.300404  CPU:    0.334
  Cycle:      9 Energy:       -94.105073  Gnorm:      0.327302  CPU:    0.371
  Cycle:     10 Energy:       -94.152801  Gnorm:      0.172167  CPU:    0.415
  Cycle:     11 Energy:       -94.162078  Gnorm:      0.129678  CPU:    0.451
  ** Hessian calculated **
  Cycle:     12 Energy:       -94.184232  Gnorm:      0.042568  CPU:    0.512
  Cycle:     13 Energy:       -94.185870  Gnorm:      0.019064  CPU:    0.549
  Cycle:     14 Energy:       -94.186129  Gnorm:      0.004834  CPU:    0.585
  Cycle:     15 Energy:       -94.186171  Gnorm:      0.003759  CPU:    0.620


  **** Optimisation achieved ****


  Final energy =     -94.18617309 eV
  Final Gnorm  =       0.00026742

  Components of energy : 

--------------------------------------------------------------------------------
  Interatomic potentials     =          21.32396821 eV    
  Monopole - monopole (real) =          81.06426209 eV    
  Monopole - monopole (recip)=        -196.57440339 eV    
  Monopole - monopole (total)=        -115.51014130 eV    
--------------------------------------------------------------------------------
  Total lattice energy       =         -94.18617309 eV    
--------------------------------------------------------------------------------
  Total lattice energy       =           -9087.5259 kJ/(mole unit cells)
--------------------------------------------------------------------------------

  Final fractional coordinates of atoms :

--------------------------------------------------------------------------------
   No.  Atomic        x           y          z          Radius
        Label       (Frac)      (Frac)     (Frac)       (Angs) 
--------------------------------------------------------------------------------
     1  Sc    c     0.333900    0.333900    0.333900    0.000000
     2  Sc    c     0.667797    0.667813    0.667799    0.000000
     3  Cl    c     0.075682    0.445383    0.703391    0.000000
     4  Cl    c     0.297892    0.926501    0.556250    0.000000
     5  Cl    c     0.445899    0.703300    0.075286    0.000000
     6  Cl    c     0.555797    0.298410    0.926421    0.000000
     7  Cl    c     0.703804    0.075207    0.445450    0.000000
     8  Cl    c     0.926009    0.556319    0.298315    0.000000
     9  Cl    s     0.065947    0.452571    0.677260    0.000000
    10  Cl    s     0.324076    0.936176    0.549072    0.000000
    11  Cl    s     0.453018    0.677183    0.065599    0.000000
    12  Cl    s     0.548677    0.324526    0.936109    0.000000
    13  Cl    s     0.677621    0.065531    0.452629    0.000000
    14  Cl    s     0.935746    0.549133    0.324445    0.000000
--------------------------------------------------------------------------------

  Final Cartesian lattice vectors (Angstroms) :

        7.492716    0.017674    0.015750
        4.666685    5.870017    0.017236
        4.663123    2.258191    5.420142


  Final cell parameters and derivatives :

--------------------------------------------------------------------------------
       a            7.492753 Angstrom     dE/de1(xx)     0.001502 eV/strain
       b            7.499023 Angstrom     dE/de2(yy)     0.001130 eV/strain
       c            7.498139 Angstrom     dE/de3(zz)     0.001402 eV/strain
       alpha       51.360329 Degrees      dE/de4(yz)     0.000184 eV/strain
       beta        51.381576 Degrees      dE/de5(xz)     0.000594 eV/strain
       gamma       51.379896 Degrees      dE/de6(xy)     0.000958 eV/strain
--------------------------------------------------------------------------------

  Primitive cell volume =           237.388320 Angs**3

  Density of cell =      2.116870 g/cm**3

  Non-primitive cell volume =           237.388320 Angs**3


  Final internal derivatives :

--------------------------------------------------------------------------------
   No.  Atomic          a             b             c           Radius
        Label          (eV)          (eV)          (eV)        (eV/Angs)
--------------------------------------------------------------------------------
      1 Sc    c       0.000000      0.000000      0.000000      0.000000
      2 Sc    c       0.001681      0.001454      0.000124      0.000000
      3 Cl    c      -0.002719     -0.000640     -0.000937      0.000000
      4 Cl    c       0.000986      0.001285      0.000118      0.000000
      5 Cl    c       0.001446      0.000724      0.001502      0.000000
      6 Cl    c      -0.000978      0.000527     -0.000482      0.000000
      7 Cl    c      -0.001726     -0.001514     -0.000663      0.000000
      8 Cl    c       0.000842     -0.000977      0.000232      0.000000
      9 Cl    s       0.003561      0.001253      0.002922      0.000000
     10 Cl    s      -0.002865     -0.003016     -0.001029      0.000000
     11 Cl    s       0.001191      0.003381      0.002375      0.000000
     12 Cl    s      -0.001348     -0.004134     -0.001709      0.000000
     13 Cl    s       0.002463      0.001978      0.000726      0.000000
     14 Cl    s      -0.002693     -0.000158     -0.002951      0.000000
--------------------------------------------------------------------------------
  Maximum abs         0.003561      0.004134      0.002951      0.000000
--------------------------------------------------------------------------------

  Comparison of initial and final structures : 

--------------------------------------------------------------------------------
  Parameter   Initial value   Final value   Difference    Units      Percent
--------------------------------------------------------------------------------
    Volume       235.198534    237.388320     2.189785    Angs**3      0.93
    a              7.453000      7.492753     0.039753    Angstroms    0.53
    b              7.453000      7.499023     0.046023    Angstroms    0.62
    c              7.453000      7.498139     0.045139    Angstroms    0.61
    alpha         51.648000     51.360329    -0.287671    Degrees     -0.56
    beta          51.648000     51.381576    -0.266424    Degrees     -0.52
    gamma         51.648000     51.379896    -0.268104    Degrees     -0.52
      1 x          0.333900      0.333900     0.000000    Fractional   0.00
      1 y          0.333900      0.333900     0.000000    Fractional   0.00
      1 z          0.333900      0.333900     0.000000    Fractional   0.00
      2 x          0.666100      0.667797     0.001697    Fractional   0.25
      2 y          0.666100      0.667813     0.001713    Fractional   0.26
      2 z          0.666100      0.667799     0.001699    Fractional   0.25
      3 x          0.073700      0.075682     0.001982    Fractional   2.69
      3 y          0.443900      0.445383     0.001483    Fractional   0.33
      3 z          0.705300      0.703391     0.001909    Fractional   0.27
      4 x          0.294700      0.297892     0.003192    Fractional   1.08
      4 y          0.926300      0.926501     0.000201    Fractional   0.02
      4 z          0.556100      0.556250     0.000150    Fractional   0.03
      5 x          0.443900      0.445899     0.001999    Fractional   0.45
      5 y          0.705300      0.703300     0.002000    Fractional   0.28
      5 z          0.073700      0.075286     0.001586    Fractional   2.15
      6 x          0.556100      0.555797     0.000303    Fractional   0.05
      6 y          0.294700      0.298410     0.003710    Fractional   1.26
      6 z          0.926300      0.926421     0.000121    Fractional   0.01
      7 x          0.705300      0.703804     0.001496    Fractional   0.21
      7 y          0.073700      0.075207     0.001507    Fractional   2.04
      7 z          0.443900      0.445450     0.001550    Fractional   0.35
      8 x          0.926300      0.926009     0.000291    Fractional   0.03
      8 y          0.556100      0.556319     0.000219    Fractional   0.04
      8 z          0.294700      0.298315     0.003615    Fractional   1.23
      9 x          0.073700      0.065947     0.007753    Fractional  10.52
      9 y          0.443900      0.452571     0.008671    Fractional   1.95
      9 z          0.705300      0.677260     0.028040    Fractional   3.98
     10 x          0.294700      0.324076     0.029376    Fractional   9.97
     10 y          0.926300      0.936176     0.009876    Fractional   1.07
     10 z          0.556100      0.549072     0.007028    Fractional   1.26
     11 x          0.443900      0.453018     0.009118    Fractional   2.05
     11 y          0.705300      0.677183     0.028117    Fractional   3.99
     11 z          0.073700      0.065599     0.008101    Fractional  10.99
     12 x          0.556100      0.548677     0.007423    Fractional   1.33
     12 y          0.294700      0.324526     0.029826    Fractional  10.12
     12 z          0.926300      0.936109     0.009809    Fractional   1.06
     13 x          0.705300      0.677621     0.027679    Fractional   3.92
     13 y          0.073700      0.065531     0.008169    Fractional  11.08
     13 z          0.443900      0.452629     0.008729    Fractional   1.97
     14 x          0.926300      0.935746     0.009446    Fractional   1.02
     14 y          0.556100      0.549133     0.006967    Fractional   1.25
     14 z          0.294700      0.324445     0.029745    Fractional  10.09
--------------------------------------------------------------------------------


  Born effective charge tensors : 

-------------------------------------------------------------------------------
  Atom             x           y             z
-------------------------------------------------------------------------------
    1 Sc    x       2.2285     -0.2571     -0.1710
            y      -0.2560      2.6360     -0.0847
            z      -0.1727     -0.0813      2.7043
-------------------------------------------------------------------------------
    2 Sc    x       2.2285     -0.2571     -0.1710
            y      -0.2560      2.6360     -0.0846
            z      -0.1727     -0.0813      2.7044
-------------------------------------------------------------------------------
    3 Cl    x      -0.8062      0.2256      0.0411
            y       0.2160     -0.8834     -0.1927
            z       0.0553     -0.1841     -0.8334
-------------------------------------------------------------------------------
    4 Cl    x      -0.7835      0.1157      0.0049
            y       0.1062     -0.9970      0.2420
            z      -0.0106      0.2360     -0.7424
-------------------------------------------------------------------------------
    5 Cl    x      -0.6388     -0.0842      0.1250
            y      -0.0662     -0.7556      0.0353
            z       0.1280      0.0294     -1.1285
-------------------------------------------------------------------------------
    6 Cl    x      -0.6388     -0.0842      0.1250
            y      -0.0662     -0.7556      0.0353
            z       0.1280      0.0294     -1.1285
-------------------------------------------------------------------------------
    7 Cl    x      -0.7835      0.1157      0.0049
            y       0.1062     -0.9970      0.2420
            z      -0.0106      0.2360     -0.7424
-------------------------------------------------------------------------------
    8 Cl    x      -0.8062      0.2256      0.0411
            y       0.2160     -0.8834     -0.1927
            z       0.0553     -0.1841     -0.8334
-------------------------------------------------------------------------------




  Elastic Constant Matrix: (Units=GPa)

-------------------------------------------------------------------------------
  Indices      1         2         3         4         5         6    
-------------------------------------------------------------------------------
       1      3.6214    8.6385    8.0518    0.5781   -2.6064   -3.9922
       2      8.6385   31.8741   23.2528   -4.4482   -5.2569  -13.8933
       3      8.0518   23.2528   39.7403   -4.9820  -10.4619   -9.4746
       4      0.5781   -4.4482   -4.9820    7.0058   -1.6207    0.0048
       5     -2.6064   -5.2569  -10.4619   -1.6207    4.2787    3.1180
       6     -3.9922  -13.8933   -9.4746    0.0048    3.1180    6.9568
-------------------------------------------------------------------------------


  Elastic Compliance Matrix: (Units=1/GPa)

-------------------------------------------------------------------------------
  Indices      1         2         3         4         5         6    
-------------------------------------------------------------------------------
       1    4.139658 -2.323081 -1.150848 -3.167637 -2.310781 -2.793293
       2   -2.323081  2.746677 -0.244172  1.461210 -1.287173  4.395552
       3   -1.150848 -0.244172  1.480853  1.927327  4.035931 -0.941456
       4   -3.167637  1.461210  1.927327  3.842313  4.931639  1.512259
       5   -2.310781 -1.287173  4.035931  4.931639 11.609238 -3.606608
       6   -2.793293  4.395552 -0.941456  1.512259 -3.606608  7.652260
-------------------------------------------------------------------------------

  Mechanical properties :

-------------------------------------------------------------------------------
  Convention :                    Reuss         Voigt         Hill
-------------------------------------------------------------------------------
  Bulk  Modulus (GPa)     =       1.07413      17.23576       9.15495
  Shear Modulus (GPa)     =       0.12749       6.00110       3.06430
-------------------------------------------------------------------------------
  Velocity S-wave (km/s)  =       0.24541       1.68371       1.20315
  Velocity P-wave (km/s)  =       0.76663       3.45282       2.50097
-------------------------------------------------------------------------------
  Compressibility (1/GPa) =    0.93098656
-------------------------------------------------------------------------------
  Stress axis :                     x             y             z
-------------------------------------------------------------------------------
  Youngs Moduli (GPa)     =       0.24157       0.36408       0.67529
-------------------------------------------------------------------------------
  Poissons Ratio (x)      =                     0.84578       0.77715
  Poissons Ratio (y)      =       0.56118                     0.16489
  Poissons Ratio (z)      =       0.27801       0.08890
-------------------------------------------------------------------------------


  Piezoelectric Strain Matrix: (Units=C/m**2)

-------------------------------------------------------------------------------
  Indices      1         2         3         4         5         6    
-------------------------------------------------------------------------------
       x    -0.00008   0.00014   0.00001  -0.00009   0.00009  -0.00005
       y    -0.00004  -0.00012   0.00007   0.00004  -0.00006  -0.00002
       z    -0.00006  -0.00018  -0.00004  -0.00005   0.00002   0.00008
-------------------------------------------------------------------------------


  Piezoelectric Stress Matrix: (Units=10**-11 C/N)

-------------------------------------------------------------------------------
  Indices      1         2         3         4         5         6    
-------------------------------------------------------------------------------
       x    -0.04806   0.01066   0.03304   0.05336   0.08812  -0.00159
       y     0.01097  -0.01943   0.00109  -0.01104   0.00386  -0.03303
       z     0.00895  -0.00670  -0.00499  -0.01237  -0.01368  -0.00769
-------------------------------------------------------------------------------


  Static dielectric constant tensor : 

-------------------------------------------------------------------------------
              x         y         z
-------------------------------------------------------------------------------
       x     2.55749  -0.36997  -0.24788
       y    -0.36997   3.14505  -0.11962
       z    -0.24788  -0.11962   3.24356
--------------------------------------------------------------------------------

  High frequency dielectric constant tensor : 

-------------------------------------------------------------------------------
              x         y         z
-------------------------------------------------------------------------------
       x     1.82639  -0.04056  -0.02716
       y    -0.04056   1.89075  -0.01312
       z    -0.02716  -0.01312   1.90154
-------------------------------------------------------------------------------

  Static refractive indices : 

-------------------------------------------------------------------------------
    1 =    1.51614      2 =    1.82309      3 =    1.82312
-------------------------------------------------------------------------------

  High frequency refractive indices : 

-------------------------------------------------------------------------------
    1 =    1.34090      2 =    1.38214      3 =    1.38215
-------------------------------------------------------------------------------


  Time to end of optimisation =       0.6836 seconds

********************************************************************************
*  Defect calculation for configuration   1 :                                  *
********************************************************************************



!!!!!!!!!!!!!!!!!!!!!!!!!!!!!!!!!!!!!!!!!!!!!!!!!!!!!!!!!!!!!!!!!!!!!!!!!!!!!!!!
!! WARNING : Ambiguous vacancy specifier used
!!!!!!!!!!!!!!!!!!!!!!!!!!!!!!!!!!!!!!!!!!!!!!!!!!!!!!!!!!!!!!!!!!!!!!!!!!!!!!!!



!!!!!!!!!!!!!!!!!!!!!!!!!!!!!!!!!!!!!!!!!!!!!!!!!!!!!!!!!!!!!!!!!!!!!!!!!!!!!!!!
!! WARNING : Ambiguous vacancy specifier used
!!!!!!!!!!!!!!!!!!!!!!!!!!!!!!!!!!!!!!!!!!!!!!!!!!!!!!!!!!!!!!!!!!!!!!!!!!!!!!!!

  Total number of defects =      2

  Total charge on defect  =   1.00

  Defect centre is at   0.0737   0.4439   0.7053  Frac

  Region 1 radius =  20.0000      Number of ions =   1974

  Region 2 radius =  24.0000      Number of ions =   1463

  Region 2a mode = 4 : screened electrostatics due to region 1 
                       neglect correction to region 1 forces from 2a
                       region 2a displacements based on defects only

  Region 2a ions will only interact with defects in region 1

  Vacancies:

--------------------------------------------------------------------------------
    Specification type     Symbol/Number         x          y          z
--------------------------------------------------------------------------------
    Atom                    Cl    core
    Atom                    Cl    shel
--------------------------------------------------------------------------------


  Components of defect energy : 

--------------------------------------------------------------------------------
  Region 1 - region 1                   =      8.75776451 eV
  Region 1 - region 2a (unrelaxed)      =      0.77671003 eV
  Region 1 - 2a (relaxed - correction)  =     -0.07863396 eV
  Region 1 (Total)                      =      9.45584057 eV
  Region 2a                             =      0.03931883 eV
  Region 2b                             =     -0.19638630 eV
--------------------------------------------------------------------------------
  Total defect energy                   =      9.29877310 eV
--------------------------------------------------------------------------------

  Largest displacement in region 2 =   0.0049 Angstroms


  Number of variables =     5922

  Maximum number of calculations  =        1000
  Maximum Hessian update interval =          10
  Maximum step size               =   1.0000000
  Maximum parameter tolerance     =   0.0000100
  Maximum function  tolerance     =   0.0000100
  Maximum gradient  tolerance     =   0.0010000

  Symmetry adapted optimisation

  Newton-Raphson optimiser to be used

  BFGS hessian update to be used

  Lower half triangular hessian to be used

  Start of defect optimisation :

  Cycle:      0 Defect Energy:   9.298773  Gnorm:     0.002923  CPU:   55.065
  ** Hessian calculated **
  Cycle:      1 Defect Energy:   8.346159  Gnorm:     0.002444  CPU:  252.854
  Cycle:      2 Defect Energy:   7.521779  Gnorm:     0.001931  CPU:  288.701
  ** Hessian calculated **
  Cycle:      3 Defect Energy:   6.498574  Gnorm:     0.001084  CPU:  472.335
  Cycle:      4 Defect Energy:   5.920419  Gnorm:     0.000203  CPU:  495.258
  Cycle:      5 Defect Energy:   5.898206  Gnorm:     0.000174  CPU:  500.690
  Cycle:      6 Defect Energy:   5.888326  Gnorm:     0.000148  CPU:  506.139
  ** Hessian calculated **
  Cycle:      7 Defect Energy:   5.866498  Gnorm:     0.000104  CPU:  639.371
  Cycle:      8 Defect Energy:   5.854737  Gnorm:     0.000074  CPU:  643.846
  Cycle:      9 Defect Energy:   5.847803  Gnorm:     0.000052  CPU:  648.406
  Cycle:     10 Defect Energy:   5.843657  Gnorm:     0.000036  CPU:  652.893
  Cycle:     11 Defect Energy:   5.841177  Gnorm:     0.000026  CPU:  657.472
  Cycle:     12 Defect Energy:   5.839673  Gnorm:     0.000018  CPU:  661.963
  Cycle:     13 Defect Energy:   5.838780  Gnorm:     0.000013  CPU:  666.523
  Cycle:     14 Defect Energy:   5.838280  Gnorm:     0.000009  CPU:  671.020
  Cycle:     15 Defect Energy:   5.837990  Gnorm:     0.000006  CPU:  675.585
  Cycle:     16 Defect Energy:   5.837817  Gnorm:     0.000004  CPU:  680.103
  ** Hessian calculated **
  Cycle:     17 Defect Energy:   5.837730  Gnorm:     0.000003  CPU:  774.087
  Cycle:     18 Defect Energy:   5.837685  Gnorm:     0.000002  CPU:  778.653
  Cycle:     19 Defect Energy:   5.837662  Gnorm:     0.000002  CPU:  783.207
  Cycle:     20 Defect Energy:   5.837650  Gnorm:     0.000001  CPU:  787.726


  **** Optimisation achieved ****


  Final defect energy  =        5.83764365
  Final defect Gnorm   =        0.00000078

  Components of defect energy : 

--------------------------------------------------------------------------------
  Region 1 - region 1                   =      5.27501661 eV
  Region 1 - region 2a (unrelaxed)      =      0.79230223 eV
  Region 1 - 2a (relaxed - correction)  =     -0.06621564 eV
  Region 1 (Total)                      =      6.00110321 eV
  Region 2a                             =      0.03310409 eV
  Region 2b                             =     -0.19656364 eV
--------------------------------------------------------------------------------
  Total defect energy                   =      5.83764365 eV
--------------------------------------------------------------------------------

  Largest displacement in region 2 =   0.0049 Angstroms

  Final coordinates of region 1 :

--------------------------------------------------------------------------------
   No.  Atomic        x           y           z          Radius      Charge
        Label       (Angs)      (Angs)      (Angs)       (Angs)       (e) 
--------------------------------------------------------------------------------
     1  Sc    c     3.289972    5.663974    3.780150    0.000000    3.000000
     2  Sc    c     5.644970    2.281864    1.522718    0.000000    3.000000
     3  Cl    c     3.957767    3.892843    2.239095    0.000000    1.485000
     4  Cl    c     4.194412    6.433836    5.925139    0.000000    1.485000
     5  Cl    c     7.689000    1.437255    2.583879    0.000000    1.485000
     6  Cl    c     6.876250    4.075726    0.360712    0.000000    1.485000
     7  Cl    c     4.627780    7.294711    2.503598    0.000000    1.485000
     8  Cl    c     2.175421    3.919487    5.111513    0.000000    1.485000
     9  Cl    c     4.483395    0.616738    2.912641    0.000000    1.485000
    10  Cl    c     9.829475    3.872641    5.025052    0.000000    1.485000
    11  Cl    c     4.809659    3.607627    7.821094    0.000000    1.485000
    12  Cl    c     9.134054    6.676112    3.014678    0.000000    1.485000
    13  Cl    c     6.866967    0.661182    5.859898    0.000000    1.485000
    14  Cl    c     8.081840    6.182353    7.049267    0.000000    1.485000
    15  Sc    c     2.734791    4.919108    7.395276    0.000000    3.000000
    16  Sc    c     6.592173   -0.582751    3.720539    0.000000    3.000000
    17  Cl    c     1.332221    6.816768    2.879957    0.000000    1.485000
    18  Cl    c     5.086359    1.451077   -0.705588    0.000000    1.485000
    19  Sc    c    11.233200    5.434285    3.637564    0.000000    3.000000
    20  Cl    c    10.902645    3.932344    1.652988    0.000000    1.485000
    21  Sc    c    10.276447    4.973284    7.244992    0.000000    3.000000
    22  Cl    c     3.387007    0.271418    7.067455    0.000000    1.485000
    23  Sc    c     2.641754    8.694862    1.713586    0.000000    3.000000
    24  Cl    c     9.131679    3.074339    8.414941    0.000000    1.485000
    25  Sc    c     6.533745    3.143714   -1.991624    0.000000    3.000000
    26  Cl    c     7.026213    9.702396    5.034113    0.000000    1.485000
    27  Sc    c     3.690914    1.726596    9.092345    0.000000    3.000000
    28  Sc    c     5.559655   -0.965778    7.294476    0.000000    3.000000
    29  Cl    c     1.599592    3.009053    8.506586    0.000000    1.485000
    30  Cl    c     5.178790   -2.109415    5.080732    0.000000    1.485000
    31  Cl    c     4.455197    4.436147   -2.457508    0.000000    1.485000
    32  Cl    c     2.333230    7.475392   -0.435519    0.000000    1.485000
    33  Cl    c     8.064286    9.775672    1.653593    0.000000    1.485000
    34  Cl    c     3.088743    6.458577    9.312169    0.000000    1.485000
    35  Cl    c     5.893060    0.550877    9.257910    0.000000    1.485000
    36  Cl    c     0.176478    1.442459    2.410803    0.000000    1.485000
    37  Cl    c     2.986296   10.025433    3.795582    0.000000    1.485000
    38  Cl    c     8.798841   -1.712353    3.854980    0.000000    1.485000
    39  Cl    c     0.641077    6.233802    7.059915    0.000000    1.485000
    40  Sc    c    10.267741    8.587012    1.827436    0.000000    3.000000
    41  Cl    c     6.331942   -1.908491    1.621471    0.000000    1.485000
    42  Cl    c     5.869430    7.787562   -1.601815    0.000000    1.485000
    43  Cl    c     8.664772    1.901378   -1.629208    0.000000    1.485000
    44  Cl    c    11.624038    6.555394    5.841913    0.000000    1.485000
    45  Cl    c     6.304858    8.920153    8.415597    0.000000    1.485000
    46  Cl    c     9.853182    7.461553   -0.374403    0.000000    1.485000
    47  Sc    c     8.395379    7.680700    9.050826    0.000000    3.000000
    48  Cl    c     7.029770    6.095533   10.433781    0.000000    1.485000
    49  Cl    c    11.966408    0.836259    3.025909    0.000000    1.485000
    50  Cl    c     4.133277   10.165745    0.375058    0.000000    1.485000
    51  Cl    c    10.909257    0.332411    7.039460    0.000000    1.485000
    52  Cl    c     7.677987    5.096788   -3.016127    0.000000    1.485000
    53  Cl    c    -0.519410    4.247262    0.411500    0.000000    1.485000
    54  Cl    c    12.347442    7.324168    2.435246    0.000000    1.485000
    55  Cl    c    -1.580704    4.181238    3.776610    0.000000    1.485000
    56  Cl    c     1.254327   -1.649513    3.780191    0.000000    1.485000
    57  Cl    c     1.233609    1.934313   -1.608006    0.000000    1.485000
    58  Cl    c    10.575956    6.458571    9.238185    0.000000    1.485000
    59  Cl    c    13.403052    4.206928    3.835699    0.000000    1.485000
    60  Cl    c    10.564920   10.055258    3.835901    0.000000    1.485000
    61  Sc    c     8.389206   11.288281    3.637650    0.000000    3.000000
    62  Cl    c    -0.533971    0.665914    5.803554    0.000000    1.485000
    63  Sc    c    13.104829    2.724718    1.829773    0.000000    3.000000
    64  Cl    c     2.289509   -1.572574    0.398729    0.000000    1.485000
    65  Sc    c     7.440810   10.830423    7.242877    0.000000    3.000000
    66  Cl    c    12.350476    3.701742    7.831179    0.000000    1.485000
    67  Cl    c     9.522118    9.559774    7.836178    0.000000    1.485000
    68  Cl    c     7.665602   -2.189381    7.843098    0.000000    1.485000
    69  Sc    c     3.718013    9.055007   -1.849094    0.000000    3.000000
    70  Cl    c     4.103570    2.905017   11.252557    0.000000    1.485000
    71  Sc    c     5.588561    6.359965   -3.648044    0.000000    3.000000
    72  Cl    c     2.042410    9.568745    7.828901    0.000000    1.485000
    73  Cl    c     9.808150   -1.546180    0.411447    0.000000    1.485000
    74  Sc    c    11.219525    1.814271    9.042482    0.000000    3.000000
    75  Sc    c     0.910317    7.724348    9.085283    0.000000    3.000000
    76  Sc    c     8.513087   -3.172274    1.807010    0.000000    3.000000
    77  Cl    c     0.492988    9.928997    1.572675    0.000000    1.485000
    78  Cl    c     6.280390    1.647012   -3.956889    0.000000    1.485000
    79  Sc    c    -1.925416    2.681012    1.791299    0.000000    3.000000
    80  Sc    c    -0.951752   -0.465852    3.605774    0.000000    3.000000
    81  Cl    c    12.679577    1.613213   -0.376432    0.000000    1.485000
    82  Cl    c     6.304005   12.537523    3.020889    0.000000    1.485000
    83  Cl    c     2.343167    0.166457   10.492118    0.000000    1.485000
    84  Cl    c     4.452116   -2.854567    8.481208    0.000000    1.485000
    85  Cl    c    -0.466310    9.714510    5.034584    0.000000    1.485000
    86  Cl    c     7.325956   -1.438595   -2.407914    0.000000    1.485000
    87  Cl    c     5.252604   12.036320    7.051006    0.000000    1.485000
    88  Cl    c     9.848004    0.240243   10.430850    0.000000    1.485000
    89  Sc    c     0.834890   11.341683    3.642638    0.000000    3.000000
    90  Sc    c     8.463350    0.408112   -3.659687    0.000000    3.000000
    91  Cl    c     3.391976    7.547572   -3.822479    0.000000    1.485000
    92  Cl    c    11.965209    4.449383   -2.377803    0.000000    1.485000
    93  Sc    c    -0.956439    3.149687   -1.811357    0.000000    3.000000
    94  Cl    c     0.195290    5.045879   -2.977677    0.000000    1.485000
    95  Cl    c     3.018330   -0.794359   -2.979174    0.000000    1.485000
    96  Cl    c     8.794843   12.407454    5.841402    0.000000    1.485000
    97  Cl    c    11.614134   10.171615    0.434360    0.000000    1.485000
    98  Cl    c     8.079951    2.577420   12.445305    0.000000    1.485000
    99  Sc    c     0.933374   -3.163773    1.797226    0.000000    3.000000
   100  Sc    c    11.222322    9.045951   -1.774765    0.000000    3.000000
   101  Cl    c    -2.631084    7.282449    2.407746    0.000000    1.485000
   102  Cl    c     3.025090   -4.401990    2.413558    0.000000    1.485000
   103  Cl    c     8.791476    8.803284   11.250554    0.000000    1.485000
   104  Cl    c    14.440233    4.321999    0.437237    0.000000    1.485000
   105  Cl    c    12.681301   -1.998984    5.026019    0.000000    1.485000
   106  Cl    c     9.136342   10.301180   -2.379625    0.000000    1.485000
   107  Cl    c    -0.423816    6.099649   10.440058    0.000000    1.485000
   108  Cl    c     7.343615   -5.017894    3.020789    0.000000    1.485000
   109  Sc    c    14.058405   -0.424388    3.637905    0.000000    3.000000
   110  Cl    c    -2.625833    3.677370    7.811468    0.000000    1.485000
   111  Cl    c     0.196409   -2.168922    7.810729    0.000000    1.485000
   112  Sc    c    13.100494   -0.886261    7.236636    0.000000    3.000000
   113  Sc    c     7.439297    7.214508   12.650995    0.000000    3.000000
   114  Cl    c    11.609582    2.950763   11.238636    0.000000    1.485000
   115  Cl    c    14.443490    0.709478    5.840153    0.000000    1.485000
   116  Sc    c    -0.053413   10.843358    7.246726    0.000000    3.000000
   117  Sc    c     9.421199   -2.696529   -1.796584    0.000000    3.000000
   118  Cl    c    -3.035504    0.791439    2.996888    0.000000    1.485000
   119  Cl    c    -2.314064    1.567439   -0.416146    0.000000    1.485000
   120  Cl    c     1.314548   12.415615    5.848371    0.000000    1.485000
   121  Cl    c    10.548717   -0.795149   -2.981771    0.000000    1.485000
   122  Cl    c     6.955365    7.936176   -5.015485    0.000000    1.485000
   123  Cl    c     4.862524   10.934634   -3.020386    0.000000    1.485000
   124  Cl    c     5.257035    8.431910   12.450268    0.000000    1.485000
   125  Cl    c    -1.176311    8.943740    8.438407    0.000000    1.485000
   126  Cl    c    -1.246900   -1.938754    1.600093    0.000000    1.485000
   127  Sc    c     0.927635    0.443378   -3.616504    0.000000    3.000000
   128  Cl    c     8.059582   -4.269575   -0.393478    0.000000    1.485000
   129  Cl    c     1.638301   10.320164   -2.405807    0.000000    1.485000
   130  Cl    c     5.215214    5.204489   -5.828299    0.000000    1.485000
   131  Cl    c    10.904796    7.545929   -3.760754    0.000000    1.485000
   132  Sc    c    -3.777614    5.401256    3.606521    0.000000    3.000000
   133  Cl    c    -3.337850    6.512214    5.810060    0.000000    1.485000
   134  Sc    c     1.883326   -2.706425   -1.809728    0.000000    3.000000
   135  Sc    c     2.757966    1.328207   12.690896    0.000000    3.000000
   136  Sc    c     6.566121   -4.102696    9.062873    0.000000    3.000000
   137  Cl    c     2.296253    2.033594   -4.990346    0.000000    1.485000
   138  Cl    c    15.184390    1.469368    2.438103    0.000000    1.485000
   139  Cl    c     9.522505   13.163866    2.430173    0.000000    1.485000
   140  Cl    c     1.319196    8.819445   11.287011    0.000000    1.485000
   141  Cl    c    10.577183   -4.424481    2.433902    0.000000    1.485000
   142  Cl    c     2.017947   13.181604    2.433950    0.000000    1.485000
   143  Cl    c     9.802621    2.038837   -5.001547    0.000000    1.485000
   144  Cl    c    -1.567540    0.582881    9.194953    0.000000    1.485000
   145  Sc    c    -1.894436   -0.919012    7.211919    0.000000    3.000000
   146  Cl    c    -1.574033    7.789756   -1.598844    0.000000    1.485000
   147  Cl    c    13.402020    0.602578    9.233990    0.000000    1.485000
   148  Cl    c     4.075908   -3.902468   -1.608311    0.000000    1.485000
   149  Cl    c     7.747075   12.302914    9.244055    0.000000    1.485000
   150  Cl    c    13.396213    7.818880   -1.565184    0.000000    1.485000
   151  Sc    c    14.054018    3.191730   -1.771822    0.000000    3.000000
   152  Cl    c     6.303283    5.316094   13.829392    0.000000    1.485000
   153  Cl    c     7.037263   13.312811   -0.372378    0.000000    1.485000
   154  Cl    c    13.744361   -1.905317    1.638872    0.000000    1.485000
   155  Cl    c    -4.090891    3.916151    1.604547    0.000000    1.485000
   156  Sc    c    10.264874    1.358388   12.643405    0.000000    3.000000
   157  Cl    c     2.299407   -5.174449    5.809193    0.000000    1.485000
   158  Cl    c     0.592150    2.563377   12.457453    0.000000    1.485000
   159  Cl    c     6.260998   -5.548260    7.039123    0.000000    1.485000
   160  Cl    c     9.521254    5.947804   13.237433    0.000000    1.485000
   161  Cl    c     4.854322    0.077785   13.251186    0.000000    1.485000
   162  Cl    c    11.963579   -2.773531    8.429278    0.000000    1.485000
   163  Cl    c    13.812857    8.953720    8.449188    0.000000    1.485000
   164  Cl    c     2.037201    5.936821   13.246165    0.000000    1.485000
   165  Cl    c    14.539161    9.726288    5.051662    0.000000    1.485000
   166  Cl    c     6.959851   -2.938167   11.243059    0.000000    1.485000
   167  Cl    c     4.211735   11.943410   10.440933    0.000000    1.485000
   168  Cl    c     9.795842   -5.168109    5.834951    0.000000    1.485000
   169  Cl    c    -2.293130   -2.048367    5.005540    0.000000    1.485000
   170  Cl    c    -0.199260   -1.440467   -2.408417    0.000000    1.485000
   171  Cl    c    15.586891    6.210229    7.064320    0.000000    1.485000
   172  Sc    c    13.102269    6.342712   -3.575828    0.000000    3.000000
   173  Sc    c     7.442012   14.440108    1.831473    0.000000    3.000000
   174  Sc    c     5.566038   13.533454    9.050125    0.000000    3.000000
   175  Cl    c    -1.252318    1.665976   -3.806511    0.000000    1.485000
   176  Cl    c    -3.026452    4.426244   -2.400995    0.000000    1.485000
   177  Cl    c     0.532308   -4.284167   -0.406487    0.000000    1.485000
   178  Sc    c     8.390975    4.061811   14.449402    0.000000    3.000000
   179  Cl    c    12.759998   12.060762    7.066189    0.000000    1.485000
   180  Sc    c    -1.887614    6.313741   -3.605346    0.000000    3.000000
   181  Cl    c    -1.221532   12.615714    3.036466    0.000000    1.485000
   182  Cl    c     8.083647   -0.696518   -5.861523    0.000000    1.485000
   183  Sc    c    -0.044192    7.210344   12.668437    0.000000    3.000000
   184  Cl    c    14.535344    6.115145   10.453669    0.000000    1.485000
   185  Sc    c     9.417719   -6.310443    3.636693    0.000000    3.000000
   186  Cl    c    16.641875    6.714920    3.047082    0.000000    1.485000
   187  Cl    c    -5.112623    3.810015    5.005616    0.000000    1.485000
   188  Cl    c    -0.190002   -5.043016    3.007331    0.000000    1.485000
   189  Sc    c    -4.713084    4.940768    7.212591    0.000000    3.000000
   190  Cl    c    -4.068213    0.309149    7.009783    0.000000    1.485000
   191  Cl    c    13.742458    1.702457   -3.764469    0.000000    1.485000
   192  Sc    c    -3.763785    1.788904    9.016719    0.000000    3.000000
   193  Sc    c     1.897268   -6.307852    3.608280    0.000000    3.000000
   194  Cl    c     3.085955    2.841667   14.655921    0.000000    1.485000
   195  Cl    c     0.265399   12.311775    9.244706    0.000000    1.485000
   196  Cl    c     8.764087   -5.283130    9.228573    0.000000    1.485000
   197  Cl    c     3.089025   13.667495   -1.590520    0.000000    1.485000
   198  Cl    c    11.597776   -3.905056   -1.586581    0.000000    1.485000
   199  Cl    c     8.746301    5.571967   -6.997540    0.000000    1.485000
   200  Sc    c     2.774353   12.219537   -3.611658    0.000000    3.000000
   201  Sc    c     6.575192    6.798392   -7.232158    0.000000    3.000000
   202  Cl    c    15.587753    9.819416    1.662488    0.000000    1.485000
   203  Cl    c    -3.335766   10.127818    0.414695    0.000000    1.485000
   204  Cl    c    -0.510555    7.888218   -4.987857    0.000000    1.485000
   205  Cl    c    17.363276    3.874965    5.049229    0.000000    1.485000
   206  Cl    c     9.132376   -0.533275   13.833869    0.000000    1.485000
   207  Cl    c    13.815421   12.566198    3.048270    0.000000    1.485000
   208  Cl    c    15.183713    5.085593   -2.960872    0.000000    1.485000
   209  Cl    c    12.355513   10.932606   -2.966799    0.000000    1.485000
   210  Cl    c     4.215897   15.555173    5.036772    0.000000    1.485000
   211  Sc    c    -4.716722    8.556608    1.801919    0.000000    3.000000
   212  Cl    c     3.433518   -3.292498   12.449977    0.000000    1.485000
   213  Cl    c     5.254991   15.649767    1.645966    0.000000    1.485000
   214  Sc    c     0.896616    4.055682   14.458541    0.000000    3.000000
   215  Sc    c    14.948868   10.849133    7.258874    0.000000    3.000000
   216  Cl    c    16.638255    3.103536    8.449588    0.000000    1.485000
   217  Sc    c     8.449370   -6.769759    7.227402    0.000000    3.000000
   218  Cl    c    -2.229231   12.054860    7.041706    0.000000    1.485000
   219  Cl    c     9.107379   -4.168019   -3.793554    0.000000    1.485000
   220  Cl    c    11.711389   11.965419   10.455949    0.000000    1.485000
   221  Sc    c    10.274111   12.199424   -3.574864    0.000000    3.000000
   222  Sc    c    15.900216    7.698369    9.063046    0.000000    3.000000
   223  Cl    c     3.482882   14.785777    8.432037    0.000000    1.485000
   224  Cl    c    12.696926    5.221148   -5.779331    0.000000    1.485000
   225  Cl    c    12.758474    8.451480   12.467369    0.000000    1.485000
   226  Cl    c    -4.391641    6.430270    9.203326    0.000000    1.485000
   227  Cl    c    -4.394302   10.033684    3.802321    0.000000    1.485000
   228  Cl    c     1.261325   -5.267216    9.199073    0.000000    1.485000
   229  Cl    c     5.209380   -5.670522   10.460464    0.000000    1.485000
   230  Cl    c     1.639324   -0.565179   13.877611    0.000000    1.485000
   231  Cl    c    10.576598    2.847843   14.636120    0.000000    1.485000
   232  Cl    c     7.750529    8.697809   14.645427    0.000000    1.485000
   233  Cl    c     4.089419   -7.507561    3.795698    0.000000    1.485000
   234  Cl    c    16.237783   -1.638673    3.834252    0.000000    1.485000
   235  Cl    c     1.259116    5.552337   -7.000559    0.000000    1.485000
   236  Cl    c    16.230705    1.972533   -1.564647    0.000000    1.485000
   237  Cl    c    -0.439521   13.323279   -0.378187    0.000000    1.485000
   238  Cl    c     4.082561   -0.296514   -7.002298    0.000000    1.485000
   239  Cl    c     7.750628   15.908267    3.838785    0.000000    1.485000
   240  Cl    c     7.334085    2.196320   -7.803441    0.000000    1.485000
   241  Cl    c    10.576035   13.669058   -1.564282    0.000000    1.485000
   242  Sc    c    -0.932765   -4.066406    9.015597    0.000000    3.000000
   243  Cl    c    -3.349403    2.913597   11.216751    0.000000    1.485000
   244  Cl    c    15.182211   -2.142364    7.837254    0.000000    1.485000
   245  Cl    c     5.129829   -3.805982   -4.994612    0.000000    1.485000
   246  Cl    c     6.702366   15.409861    7.840717    0.000000    1.485000
   247  Sc    c    -0.050061   14.478963    1.811692    0.000000    3.000000
   248  Sc    c     9.426568    0.936364   -7.233638    0.000000    3.000000
   249  Cl    c    -5.851220    6.667083    3.001799    0.000000    1.485000
   250  Cl    c     0.540973   -0.674757   -5.819807    0.000000    1.485000
   251  Sc    c     5.567005    9.920240   14.455147    0.000000    3.000000
   252  Cl    c    -0.526743   -2.935183   11.214557    0.000000    1.485000
   253  Cl    c     1.589625   -4.181902   -3.809600    0.000000    1.485000
   254  Cl    c    12.348870    0.099558   13.235320    0.000000    1.485000
   255  Cl    c     5.130520   -7.415043    0.407001    0.000000    1.485000
   256  Cl    c     6.700379   11.801408   13.244557    0.000000    1.485000
   257  Cl    c     8.083478   13.406581   -3.760590    0.000000    1.485000
   258  Sc    c    -3.759187    9.018349   -1.796409    0.000000    3.000000
   259  Sc    c     1.899405    0.917596   -7.211072    0.000000    3.000000
   260  Cl    c     7.032330    2.479481   15.840639    0.000000    1.485000
   261  Cl    c    14.800588   -1.397599   -2.373867    0.000000    1.485000
   262  Cl    c    -3.019358   -2.805813    8.410608    0.000000    1.485000
   263  Cl    c    -5.108789    7.426603   -0.401232    0.000000    1.485000
   264  Sc    c    15.902396   11.310761    3.658151    0.000000    3.000000
   265  Cl    c    -1.185178    5.310048   13.832812    0.000000    1.485000
   266  Cl    c     8.033997   -7.878499    5.016245    0.000000    1.485000
   267  Sc    c     3.777202   -5.401098   -3.608544    0.000000    3.000000
   268  Cl    c     4.485761    8.054199   -7.807747    0.000000    1.485000
   269  Cl    c     2.380404   11.070210   -5.800281    0.000000    1.485000
   270  Sc    c     8.400042   14.900984   -1.767396    0.000000    3.000000
   271  Sc    c    17.775442    4.994963    7.256874    0.000000    3.000000
   272  Sc    c     3.738327   -1.821692   14.461550    0.000000    3.000000
   273  Sc    c     5.611444   -4.520455   12.658925    0.000000    3.000000
   274  Cl    c     3.481635   11.172469   13.836514    0.000000    1.485000
   275  Cl    c    10.912654   -3.272349   12.444602    0.000000    1.485000
   276  Cl    c     9.872354   11.073873   -5.777665    0.000000    1.485000
   277  Cl    c    -1.234968   -5.540303    7.008093    0.000000    1.485000
   278  Sc    c     0.945046   -6.765826    7.209230    0.000000    3.000000
   279  Sc    c    15.935763   -3.124162    1.830373    0.000000    3.000000
   280  Cl    c    -2.217326    8.430208   12.441348    0.000000    1.485000
   281  Sc    c     4.617386   13.069833   12.651068    0.000000    3.000000
   282  Cl    c     9.100848   -7.765075    1.623377    0.000000    1.485000
   283  Cl    c    17.368029    7.484891   -0.353194    0.000000    1.485000
   284  Cl    c     3.038269    2.817228   -8.384621    0.000000    1.485000
   285  Cl    c    10.985676   14.805938    8.451094    0.000000    1.485000
   286  Cl    c     8.803925   16.018911    0.441576    0.000000    1.485000
   287  Cl    c    -5.843827    3.050258    8.406003    0.000000    1.485000
   288  Cl    c    -2.276042    5.182895   -5.804672    0.000000    1.485000
   289  Sc    c    14.052719   -4.034141    9.042528    0.000000    3.000000
   290  Cl    c    18.415542    3.969588    1.659114    0.000000    1.485000
   291  Sc    c    17.778004    8.607627    1.852292    0.000000    3.000000
   292  Cl    c    13.808302    5.342805   13.853167    0.000000    1.485000
   293  Cl    c    -2.614779   10.902416   -2.987210    0.000000    1.485000
   294  Cl    c     4.212152    8.332355   15.844779    0.000000    1.485000
   295  Cl    c     5.863535   -6.645434   -2.986092    0.000000    1.485000
   296  Cl    c    14.798745   -5.008678    3.030068    0.000000    1.485000
   297  Cl    c     5.975252   14.652213   11.252629    0.000000    1.485000
   298  Cl    c    14.451119    7.934115   -4.962403    0.000000    1.485000
   299  Cl    c    11.714962   15.576990    5.053258    0.000000    1.485000
   300  Sc    c    18.729082    5.457008    3.656561    0.000000    3.000000
   301  Cl    c    13.744286   -5.513709    7.040194    0.000000    1.485000
   302  Sc    c    13.071969   13.551593    9.064267    0.000000    3.000000
   303  Cl    c     1.595075   -7.779392    1.602834    0.000000    1.485000
   304  Sc    c     5.572984   17.143677    3.642712    0.000000    3.000000
   305  Cl    c    -5.193301   -1.589439    0.391270    0.000000    1.485000
   306  Cl    c     0.262099    8.693956   14.659175    0.000000    1.485000
   307  Cl    c    -4.066077    7.532873   -3.795845    0.000000    1.485000
   308  Cl    c     5.931370   -3.020958   14.643260    0.000000    1.485000
   309  Sc    c    14.944922    7.235814   12.662967    0.000000    3.000000
   310  Cl    c     0.274532   15.936303    3.822312    0.000000    1.485000
   311  Cl    c    17.031111    9.586158    7.861147    0.000000    1.485000
   312  Cl    c    11.595641   -7.523405    3.826270    0.000000    1.485000
   313  Sc    c    15.936235    0.490478   -3.573209    0.000000    3.000000
   314  Sc    c     4.620668   16.683301    7.242835    0.000000    3.000000
   315  Cl    c     5.915795   11.421084   -6.992472    0.000000    1.485000
   316  Cl    c    11.604092   -0.276342   -7.006434    0.000000    1.485000
   317  Sc    c     0.911866   14.908356   -1.783798    0.000000    3.000000
   318  Cl    c    15.583787    2.599652   12.465419    0.000000    1.485000
   319  Cl    c     0.587561   13.422084   -3.782967    0.000000    1.485000
   320  Cl    c     6.265812    5.296152   -9.210164    0.000000    1.485000
   321  Sc    c     8.458765    4.090419   -9.009341    0.000000    3.000000
   322  Cl    c     1.337250   16.030857    0.419346    0.000000    1.485000
   323  Cl    c     4.146877   13.785185   -4.997561    0.000000    1.485000
   324  Cl    c    10.551482    2.848516   -8.392222    0.000000    1.485000
   325  Cl    c     7.705912    8.695080   -8.403702    0.000000    1.485000
   326  Cl    c    -5.445687    9.532939    7.817150    0.000000    1.485000
   327  Cl    c     3.031281   -8.018350    7.813250    0.000000    1.485000
   328  Cl    c     8.791760    5.192310   16.647463    0.000000    1.485000
   329  Cl    c    17.279559   -1.528361    0.438371    0.000000    1.485000
   330  Sc    c    -0.923357    6.774420   -7.202984    0.000000    3.000000
   331  Sc    c    -1.922844   13.540287    9.050708    0.000000    3.000000
   332  Cl    c    10.982599   11.193967   13.854173    0.000000    1.485000
   333  Sc    c    11.295599   -5.393209   -3.595963    0.000000    3.000000
   334  Cl    c    14.543598   13.336699   -0.350732    0.000000    1.485000
   335  Cl    c     0.541910   -7.888414    5.002303    0.000000    1.485000
   336  Cl    c    -0.181381    2.183860   -7.803274    0.000000    1.485000
   337  Sc    c    11.221797   -1.790105   14.447007    0.000000    3.000000
   338  Cl    c    -6.886519    6.166044    7.010375    0.000000    1.485000
   339  Cl    c    -2.625412    0.071092   13.216846    0.000000    1.485000
   340  Cl    c    14.445878   -2.899110   11.242015    0.000000    1.485000
   341  Cl    c    -4.464641   -0.818214   -3.005324    0.000000    1.485000
   342  Cl    c    16.301379   12.435273    5.863453    0.000000    1.485000
   343  Cl    c    -5.109703    0.201368   10.409803    0.000000    1.485000
   344  Cl    c     2.644989   -7.280261   -2.399687    0.000000    1.485000
   345  Cl    c    15.521885   -4.240105   -0.376140    0.000000    1.485000
   346  Cl    c    18.413452    0.359602    7.061142    0.000000    1.485000
   347  Cl    c     6.317701   16.159924   -2.372158    0.000000    1.485000
   348  Cl    c    -6.239729   -1.683227    3.780302    0.000000    1.485000
   349  Cl    c    -6.238438    1.924768   -1.619458    0.000000    1.485000
   350  Cl    c    -3.412740   -3.924471   -1.621284    0.000000    1.485000
   351  Cl    c    18.081120    6.478063    9.257603    0.000000    1.485000
   352  Cl    c    15.253653   12.329842    9.260074    0.000000    1.485000
   353  Cl    c    18.082482   10.088649    3.855053    0.000000    1.485000
   354  Sc    c     3.777635   -9.006343    1.801656    0.000000    3.000000
   355  Cl    c    12.761968   15.672814    1.663174    0.000000    1.485000
   356  Cl    c    -7.292884    1.420472    2.394309    0.000000    1.485000
   357  Cl    c    -4.467213   -4.428349    2.393665    0.000000    1.485000
   358  Cl    c    19.126090    6.583489    5.861589    0.000000    1.485000
   359  Cl    c    16.297815    8.823613   11.267020    0.000000    1.485000
   360  Cl    c    12.687522   -5.612524   10.434033    0.000000    1.485000
   361  Cl    c     1.299845    5.183536   16.654495    0.000000    1.485000
   362  Cl    c    10.531633   -8.023000    7.825938    0.000000    1.485000
   363  Cl    c    -0.779686   15.411752    7.839697    0.000000    1.485000
   364  Cl    c    11.976952    8.067437   -7.776805    0.000000    1.485000
   365  Cl    c    12.637055   -3.790488   -4.979874    0.000000    1.485000
   366  Cl    c    -0.454105    2.463859   15.841062    0.000000    1.485000
   367  Cl    c    -3.263481   11.935146   10.432686    0.000000    1.485000
   368  Cl    c     7.309131   -8.647549    8.425591    0.000000    1.485000
   369  Cl    c    10.150296   -7.262761   -2.383964    0.000000    1.485000
   370  Cl    c     2.435245   14.285629   12.452094    0.000000    1.485000
   371  Sc    c     0.952500    4.072204   -9.008303    0.000000    3.000000
   372  Cl    c    17.360452    0.261929   10.452393    0.000000    1.485000
   373  Cl    c     7.700092   -5.772358   13.246878    0.000000    1.485000
   374  Sc    c    14.950579   14.461323    1.854494    0.000000    3.000000
   375  Cl    c     4.140497   -0.681905   16.653971    0.000000    1.485000
   376  Cl    c    -0.785366   11.794553   13.241479    0.000000    1.485000
   377  Cl    c    16.644836   10.326792   -2.354574    0.000000    1.485000
   378  Cl    c    12.628166   -7.402532    0.424970    0.000000    1.485000
   379  Cl    c     9.931618   14.302837   12.468611    0.000000    1.485000
   380  Sc    c    14.062222    6.808108   -7.173628    0.000000    3.000000
   381  Sc    c    -6.583232    7.647470    9.018417    0.000000    3.000000
   382  Sc    c     4.730324   -8.546378   -1.798214    0.000000    3.000000
   383  Cl    c    19.468533    0.864440    3.047042    0.000000    1.485000
   384  Sc    c    12.117836   13.089097   12.664287    0.000000    3.000000
   385  Cl    c    11.709324    8.353729   15.859567    0.000000    1.485000
   386  Sc    c    18.724767    1.844240    9.061106    0.000000    3.000000
   387  Sc    c    13.069058    9.938899   14.468027    0.000000    3.000000
   388  Sc    c     3.740857   12.653218   -7.204117    0.000000    3.000000
   389  Sc    c     5.614302    9.953774   -9.006744    0.000000    3.000000
   390  Cl    c     5.259162    4.822579   17.853411    0.000000    1.485000
   391  Sc    c    -4.711739    1.330310   12.618293    0.000000    3.000000
   392  Sc    c    16.888787   -2.658299   -1.768409    0.000000    3.000000
   393  Cl    c    -6.891653    9.779332    1.609545    0.000000    1.485000
   394  Cl    c     0.215316    8.664858   -8.389872    0.000000    1.485000
   395  Cl    c    -2.226873   15.692710    1.623241    0.000000    1.485000
   396  Cl    c     5.869300   -3.032549   -8.387527    0.000000    1.485000
   397  Cl    c     9.121843   -0.547080   -9.223952    0.000000    1.485000
   398  Cl    c     5.984188   18.260944    5.848394    0.000000    1.485000
   399  Cl    c    11.632446   13.783976   -4.961083    0.000000    1.485000
   400  Sc    c    13.099012   -4.491172   12.642149    0.000000    3.000000
   401  Sc    c     7.441932    3.603478   18.050694    0.000000    3.000000
   402  Sc    c     3.783493   -1.783143   -9.009535    0.000000    3.000000
   403  Cl    c    -8.012747    4.261859    0.394268    0.000000    1.485000
   404  Sc    c    -6.581013   11.261251    3.614861    0.000000    3.000000
   405  Cl    c    -5.184566    2.021831   -5.007132    0.000000    1.485000
   406  Sc    c    -1.924341    9.915897   14.450214    0.000000    3.000000
   407  Cl    c    19.860177    7.346265    2.457515    0.000000    1.485000
   408  Sc    c     4.733991   -4.932549   -7.206268    0.000000    3.000000
   409  Sc    c    12.121098   16.701735    7.259791    0.000000    3.000000
   410  Sc    c    11.282327   -9.000191    1.814770    0.000000    3.000000
   411  Cl    c    17.033605   13.198090    2.458273    0.000000    1.485000
   412  Cl    c    -2.284343   -5.650166   10.408607    0.000000    1.485000
   413  Cl    c     2.649949   -3.667463   -7.803762    0.000000    1.485000
   414  Cl    c    15.529458   -0.628240   -5.778670    0.000000    1.485000
   415  Cl    c     3.490848   18.402194    3.035122    0.000000    1.485000
   416  Cl    c     2.438041   17.899003    7.048190    0.000000    1.485000
   417  Cl    c    -8.017835    0.652799    5.795367    0.000000    1.485000
   418  Cl    c    -2.361766   -3.826475   -5.009937    0.000000    1.485000
   419  Cl    c    19.857015    3.733419    7.860104    0.000000    1.485000
   420  Cl    c    -5.440178   13.144442    2.416591    0.000000    1.485000
   421  Cl    c     1.597985   -0.564818   -9.207559    0.000000    1.485000
   422  Cl    c     5.862396  -10.259267    2.411011    0.000000    1.485000
   423  Cl    c     5.972906   11.043692   16.655895    0.000000    1.485000
   424  Cl    c    17.283730    2.084568   -4.961361    0.000000    1.485000
   425  Cl    c    14.204143   15.437311    7.861880    0.000000    1.485000
   426  Sc    c    -5.601558   -2.713295   -1.815547    0.000000    3.000000
   427  Sc    c    15.894440    4.084788   14.466229    0.000000    3.000000
   428  Sc    c    -6.555449   -3.174712    1.785017    0.000000    3.000000
   429  Cl    c    -5.836017   10.282747   -2.396262    0.000000    1.485000
   430  Sc    c    -1.883754   -4.522808   12.615874    0.000000    3.000000
   431  Cl    c     2.384921   -3.404930   15.850026    0.000000    1.485000
   432  Cl    c     3.376739   -6.519959   -5.812465    0.000000    1.485000
   433  Cl    c     4.478935   -6.404625   13.852966    0.000000    1.485000
   434  Cl    c    -3.252811   15.551936    5.027023    0.000000    1.485000
   435  Cl    c    10.159635   -3.644180   -7.788507    0.000000    1.485000
   436  Cl    c     9.934527   17.914936    7.066093    0.000000    1.485000
   437  Cl    c    -5.192854   -5.196276    5.793857    0.000000    1.485000
   438  Cl    c    -2.365050   -7.436338    0.390732    0.000000    1.485000
   439  Cl    c    17.026952    5.972972   13.263350    0.000000    1.485000
   440  Cl    c    14.200991   11.825709   13.264546    0.000000    1.485000
   441  Cl    c    -6.162999   12.376056    5.820943    0.000000    1.485000
   442  Cl    c     9.863524   -3.372376   15.840139    0.000000    1.485000
   443  Cl    c    18.019285   -0.762891   -2.960202    0.000000    1.485000
   444  Cl    c     2.313264    5.657393  -10.394480    0.000000    1.485000
   445  Cl    c    14.807989    2.217353   -7.775641    0.000000    1.485000
   446  Cl    c     9.537978   16.784833   -2.961883    0.000000    1.485000
   447  Cl    c    -1.508883   14.650354   11.255013    0.000000    1.485000
   448  Sc    c    18.731150    9.068775   -1.747990    0.000000    3.000000
   449  Cl    c    13.374326   -6.643879   -2.975436    0.000000    1.485000
   450  Cl    c     9.805943    5.684507  -10.392649    0.000000    1.485000
   451  Sc    c    13.074683   17.163893    3.659869    0.000000    3.000000
   452  Cl    c     2.051662   16.784059   -2.985573    0.000000    1.485000
   453  Cl    c    -5.451421    5.922865   13.220385    0.000000    1.485000
   454  Cl    c     0.202143   -5.780113   13.215879    0.000000    1.485000
   455  Cl    c    11.621274   -0.658321   16.646154    0.000000    1.485000
   456  Cl    c    17.279845   -5.139530    5.841651    0.000000    1.485000
   457  Sc    c    11.236180   12.662084   -7.171553    0.000000    3.000000
   458  Cl    c    -7.286205    5.032778   -3.005792    0.000000    1.485000
   459  Cl    c    -6.171357    8.766375   11.222677    0.000000    1.485000
   460  Sc    c    20.604534    2.754294    1.850555    0.000000    3.000000
   461  Cl    c    -1.635057   -6.666526   -3.006588    0.000000    1.485000
   462  Cl    c    14.532860    2.501412   15.857822    0.000000    1.485000
   463  Cl    c    -1.232297    5.287562   -9.198095    0.000000    1.485000
   464  Cl    c    18.017960   -4.378413    2.439286    0.000000    1.485000
   465  Cl    c    19.129097   10.195039    0.458190    0.000000    1.485000
   466  Cl    c    19.472405    4.475352   -2.356353    0.000000    1.485000
   467  Cl    c    13.472293   14.675276   11.268595    0.000000    1.485000
   468  Cl    c     5.139113   -0.192447  -10.395414    0.000000    1.485000
   469  Cl    c     6.710374   19.024332    2.441526    0.000000    1.485000
   470  Cl    c    -7.927363    9.668087    5.007510    0.000000    1.485000
   471  Cl    c    -0.186759   -8.650168    8.408189    0.000000    1.485000
   472  Cl    c     3.425022   11.159934   -9.194279    0.000000    1.485000
   473  Cl    c    -9.063019    4.166898    3.784015    0.000000    1.485000
   474  Cl    c    -4.397087    2.821113   14.610338    0.000000    1.485000
   475  Sc    c    -6.551306    0.438037   -3.619204    0.000000    3.000000
   476  Cl    c    -3.410260   -7.532491    3.780731    0.000000    1.485000
   477  Cl    c    -1.569043   -3.030007   14.607569    0.000000    1.485000
   478  Cl    c    -3.405851   -0.313907   -7.020360    0.000000    1.485000
   479  Cl    c    -4.385414   13.649497   -1.596898    0.000000    1.485000
   480  Cl    c    15.251792    8.719254   14.662015    0.000000    1.485000
   481  Cl    c    20.909393    4.237122    3.853171    0.000000    1.485000
   482  Cl    c    13.408230   -3.000316   14.636845    0.000000    1.485000
   483  Cl    c    16.237242   -5.244396    9.236152    0.000000    1.485000
   484  Cl    c    -1.559648   11.406137   -7.001186    0.000000    1.485000
   485  Cl    c     4.928484   14.550552   14.648341    0.000000    1.485000
   486  Cl    c    15.255610   15.940460    3.857458    0.000000    1.485000
   487  Cl    c     4.931190   18.159358    9.244159    0.000000    1.485000
   488  Cl    c    18.418797    7.579942   -3.744279    0.000000    1.485000
   489  Cl    c     6.915247   -9.757274   -1.602712    0.000000    1.485000
   490  Cl    c     6.917360   -6.145749   -7.004060    0.000000    1.485000
   491  Cl    c    16.240902    5.587668   -6.966966    0.000000    1.485000
   492  Cl    c    13.413886   11.436889   -6.965980    0.000000    1.485000
   493  Sc    c    17.770232    1.382271   12.660746    0.000000    3.000000
   494  Sc    c    -8.429506   -0.470759    3.590945    0.000000    3.000000
   495  Cl    c    20.195088    1.633222   -0.355610    0.000000    1.485000
   496  Sc    c    -1.913055   17.159237    3.642042    0.000000    3.000000
   497  Cl    c     8.088704   -1.030041   17.849658    0.000000    1.485000
   498  Sc    c    11.304615   -1.773402   -9.004184    0.000000    3.000000
   499  Cl    c    10.989460   18.420518    3.050923    0.000000    1.485000
   500  Cl    c    -3.003708    8.037727   -7.798230    0.000000    1.485000
   501  Cl    c    -4.062727   -3.299099   12.412730    0.000000    1.485000
   502  Cl    c     3.370115  -10.126449   -0.403298    0.000000    1.485000
   503  Sc    c    16.886435   -6.270966    3.638290    0.000000    3.000000
   504  Cl    c    -7.292682   -2.188352    7.796745    0.000000    1.485000
   505  Cl    c    -4.003280   14.788699    8.429505    0.000000    1.485000
   506  Sc    c    -4.698706   12.171256   -3.599552    0.000000    3.000000
   507  Sc    c    15.932281   -6.732672    7.237005    0.000000    3.000000
   508  Cl    c    19.121696    2.971701   11.264816    0.000000    1.485000
   509  Cl    c    -1.170560   16.164590   -2.379224    0.000000    1.485000
   510  Sc    c     4.617931    9.457125   18.055207    0.000000    3.000000
   511  Cl    c    10.878799   -6.504068   -5.799865    0.000000    1.485000
   512  Cl    c    13.753203    5.319053   -9.167989    0.000000    1.485000
   513  Cl    c     8.059076    2.960296  -11.205762    0.000000    1.485000
   514  Sc    c    -2.870494   13.060048   12.643730    0.000000    3.000000
   515  Sc    c    12.232711   -8.533789   -1.780192    0.000000    3.000000
   516  Sc    c    -7.532327   10.797231    7.213990    0.000000    3.000000
   517  Cl    c     9.526843    2.342780   18.644027    0.000000    1.485000
   518  Cl    c     2.299355   -8.785783   11.214588    0.000000    1.485000
   519  Cl    c     6.701800    8.193224   18.649735    0.000000    1.485000
   520  Cl    c     5.130696  -11.026290    5.809298    0.000000    1.485000
   521  Cl    c    15.591559   13.432612   -3.741381    0.000000    1.485000
   522  Sc    c    -0.052736    3.588690   18.051778    0.000000    3.000000
   523  Cl    c    16.634711   -0.508168   13.854627    0.000000    1.485000
   524  Sc    c     9.395572   -9.912309    9.033101    0.000000    3.000000
   525  Cl    c     2.035419    2.329350   18.638438    0.000000    1.485000
   526  Cl    c     9.791506   -8.771749   11.229672    0.000000    1.485000
   527  Cl    c     8.886765   17.816828   10.456744    0.000000    1.485000
   528  Sc    c    -8.425364    3.142547   -1.813413    0.000000    3.000000
   529  Cl    c    -7.930656    6.055737   10.408998    0.000000    1.485000
   530  Cl    c    15.521567   -7.851930    5.029775    0.000000    1.485000
   531  Cl    c     2.644032  -10.887729    3.004863    0.000000    1.485000
   532  Cl    c     9.152950   13.923209   -7.772702    0.000000    1.485000
   533  Sc    c    -9.379355    2.680277    1.786622    0.000000    3.000000
   534  Cl    c    -6.889398    2.552922   12.414409    0.000000    1.485000
   535  Sc    c    -3.722325   -5.414425   -3.620352    0.000000    3.000000
   536  Cl    c    16.579320   -4.140766   -3.766914    0.000000    1.485000
   537  Sc    c    -3.759568   -1.820358   14.419214    0.000000    3.000000
   538  Sc    c     1.898696   -9.914763    9.012314    0.000000    3.000000
   539  Cl    c    10.924500   11.171908   -9.165904    0.000000    1.485000
   540  Sc    c    -5.599951   -6.323257    3.590137    0.000000    3.000000
   541  Cl    c    20.191225   -1.977996    5.047944    0.000000    1.485000
   542  Cl    c     6.309669    1.710504   19.241276    0.000000    1.485000
   543  Sc    c    -2.863757   16.679730    7.234703    0.000000    3.000000
   544  Sc    c    12.240499   -4.915819   -7.190266    0.000000    3.000000
   545  Cl    c    12.756751    4.841714   17.869188    0.000000    1.485000
   546  Cl    c    13.819763   16.180888   -2.351740    0.000000    1.485000
   547  Cl    c     4.225373   19.168569   -0.363569    0.000000    1.485000
   548  Cl    c    -3.273789    8.318327   15.831351    0.000000    1.485000
   549  Cl    c    10.137874  -10.875864    3.016870    0.000000    1.485000
   550  Sc    c    15.904740   14.922482   -1.745306    0.000000    3.000000
   551  Cl    c    -4.007512   11.164896   13.828863    0.000000    1.485000
   552  Cl    c    10.864559  -10.113215   -0.390813    0.000000    1.485000
   553  Cl    c     1.656361   13.912300   -7.792456    0.000000    1.485000
   554  Cl    c     5.219114    8.817144  -11.202307    0.000000    1.485000
   555  Cl    c    11.965525   -6.379452   13.837817    0.000000    1.485000
   556  Sc    c    13.113805    9.960206   -8.974399    0.000000    3.000000
   557  Sc    c     7.456459   18.055085   -3.566890    0.000000    3.000000
   558  Cl    c     1.394663   17.797987   10.440409    0.000000    1.485000
   559  Cl    c     2.436735   10.676467   17.854087    0.000000    1.485000
   560  Cl    c     0.603802   -1.043435   17.838504    0.000000    1.485000
   561  Cl    c     6.258433   -9.134529   12.433709    0.000000    1.485000
   562  Sc    c    16.894091    0.957246   -7.171193    0.000000    3.000000
   563  Sc    c    20.600869   -0.857697    7.255137    0.000000    3.000000
   564  Sc    c     2.782027   -2.266655   18.054165    0.000000    3.000000
   565  Sc    c     6.569750   -7.668270   14.445758    0.000000    3.000000
   566  Cl    c    19.465163   -2.746847    8.451161    0.000000    1.485000
   567  Cl    c     8.884178   14.205015   15.861106    0.000000    1.485000
   568  Cl    c    -3.330489   13.747700   -4.990222    0.000000    1.485000
   569  Cl    c     3.483635    7.563449   19.244453    0.000000    1.485000
   570  Cl    c    15.196497    8.700082   -8.361522    0.000000    1.485000
   571  Cl    c     9.931270   10.694227   17.870529    0.000000    1.485000
   572  Cl    c    -7.683435   -1.450197   -2.419235    0.000000    1.485000
   573  Cl    c    -6.954630   -4.299103   -0.420366    0.000000    1.485000
   574  Cl    c     7.056989   16.927969   -5.770635    0.000000    1.485000
   575  Cl    c    -8.664958    8.904262    8.407595    0.000000    1.485000
   576  Cl    c     0.555585    2.945556  -11.208972    0.000000    1.485000
   577  Cl    c    -1.499273   18.267156    5.850086    0.000000    1.485000
   578  Sc    c     2.744997   15.774872   14.454079    0.000000    3.000000
   579  Cl    c    13.383509   -3.026659   -8.380093    0.000000    1.485000
   580  Cl    c     6.974133   11.536500  -10.390747    0.000000    1.485000
   581  Cl    c     4.878339   14.538977   -8.392257    0.000000    1.485000
   582  Cl    c    -8.735631   -1.952673    1.588961    0.000000    1.485000
   583  Sc    c    -1.870050    9.926485   -9.005139    0.000000    3.000000
   584  Cl    c    -4.453006    2.795878   -8.405373    0.000000    1.485000
   585  Cl    c    -1.628580   -3.054258   -8.407390    0.000000    1.485000
   586  Sc    c    17.780151   12.219773   -3.550529    0.000000    3.000000
   587  Cl    c    16.305068   16.046685    0.461062    0.000000    1.485000
   588  Cl    c    13.476778   18.286539    5.865573    0.000000    1.485000
   589  Cl    c    -5.843703   -0.560448   13.810082    0.000000    1.485000
   590  Cl    c    -5.094290   11.038066   -5.799769    0.000000    1.485000
   591  Sc    c     5.569596    6.306937   19.857148    0.000000    3.000000
   592  Cl    c    16.576802   -7.750223    1.636743    0.000000    1.485000
   593  Sc    c    10.273036   -2.248927   18.048338    0.000000    3.000000
   594  Cl    c     4.423202  -10.022738   -3.799701    0.000000    1.485000
   595  Cl    c    -2.231498    4.808622   17.840316    0.000000    1.485000
   596  Cl    c     9.083423  -11.381787    7.025390    0.000000    1.485000
   597  Cl    c    14.796683   -8.618266    8.435541    0.000000    1.485000
   598  Cl    c     1.391990   14.185475   15.845695    0.000000    1.485000
   599  Sc    c    15.943889    4.107213   -8.974922    0.000000    3.000000
   600  Sc    c     4.628342   20.296766    1.840626    0.000000    3.000000
   601  Sc    c    -5.591384    0.902544   -7.217491    0.000000    3.000000
   602  Sc    c    21.555167   -0.395220    3.655717    0.000000    3.000000
   603  Cl    c    -1.519725   11.035321   16.652032    0.000000    1.485000
   604  Cl    c    13.362028  -10.256325    2.422874    0.000000    1.485000
   605  Sc    c    10.241330   15.791759   14.468575    0.000000    3.000000
   606  Cl    c    -0.771661   19.034783    2.436279    0.000000    1.485000
   607  Cl    c    -9.064079    0.558310    9.187553    0.000000    1.485000
   608  Cl    c    12.650900   -0.175636  -10.388725    0.000000    1.485000
   609  Cl    c    -6.237347   -5.291271    9.185663    0.000000    1.485000
   610  Cl    c    -9.058143    7.777914   -1.615940    0.000000    1.485000
   611  Cl    c    -7.221159   12.280127    9.211541    0.000000    1.485000
   612  Sc    c    -7.537228    7.184226   12.617856    0.000000    3.000000
   613  Cl    c    -6.228322    5.538596   -7.017895    0.000000    1.485000
   614  Cl    c    18.077482    2.867364   14.659847    0.000000    1.485000
   615  Cl    c    20.906862    0.626717    9.256019    0.000000    1.485000
   616  Cl    c    -0.581043   -9.773894   -1.619895    0.000000    1.485000
   617  Cl    c     7.755468    5.090333   20.045245    0.000000    1.485000
   618  Cl    c     4.086886  -11.123553    9.201562    0.000000    1.485000
   619  Cl    c    -0.578413   -6.163093   -7.021479    0.000000    1.485000
   620  Cl    c    12.424497   14.570911   14.663974    0.000000    1.485000
   621  Cl    c    20.911480    7.848113   -1.548945    0.000000    1.485000
   622  Cl    c    12.427482   18.181182    9.261506    0.000000    1.485000
   623  Cl    c    19.069601   -3.873900   -1.568159    0.000000    1.485000
   624  Cl    c    18.084877   13.699512   -1.546459    0.000000    1.485000
   625  Cl    c     4.091465    3.317088  -12.404367    0.000000    1.485000
   626  Sc    c     2.749632   19.388078    9.049193    0.000000    3.000000
   627  Cl    c     7.763022   19.528087   -1.560119    0.000000    1.485000
[...]
   1894 x         13.156442     13.162017     0.005574    Cartesian    0.04
   1894 y          0.549557      0.553317     0.003761    Cartesian    0.68
   1894 z        -13.746577    -13.751436    -0.004859    Cartesian    0.04
   1895 x         -5.983643     -5.979412     0.004230    Cartesian   -0.07
   1895 y         17.956112     17.953644    -0.002468    Cartesian   -0.01
   1895 z         10.479693     10.478437    -0.001256    Cartesian   -0.01
   1896 x         13.175967     13.175628    -0.000339    Cartesian   -0.00
   1896 y         -9.462389     -9.458605     0.003784    Cartesian   -0.04
   1896 z         -7.830218     -7.827299     0.002919    Cartesian   -0.04
   1897 x          5.753588      5.756195     0.002607    Cartesian    0.05
   1897 y         -6.648332     -6.649354    -0.001022    Cartesian    0.02
   1897 z         19.888402     19.892539     0.004137    Cartesian    0.02
   1898 x          4.041523      4.039603    -0.001921    Cartesian   -0.05
   1898 y         17.207216     17.209791     0.002575    Cartesian    0.01
   1898 z        -10.429963    -10.429872     0.000091    Cartesian   -0.00
   1899 x          7.504380      7.505347     0.000967    Cartesian    0.01
   1899 y         12.254244     12.252834    -0.001410    Cartesian   -0.01
   1899 z        -13.743604    -13.746022    -0.002418    Cartesian    0.02
   1900 x         15.020182     15.020410     0.000228    Cartesian    0.00
   1900 y          5.871799      5.871583    -0.000216    Cartesian   -0.00
   1900 z        -13.214402    -13.210790     0.003612    Cartesian   -0.03
   1901 x         -8.558160     -8.558375    -0.000214    Cartesian    0.00
   1901 y          5.290904      5.289634    -0.001270    Cartesian   -0.02
   1901 z         -9.071808     -9.072365    -0.000557    Cartesian    0.01
   1902 x         -2.724506     -2.724855    -0.000349    Cartesian    0.01
   1902 y         10.908699     10.905914    -0.002785    Cartesian   -0.03
   1902 z         19.892860     19.895240     0.002380    Cartesian    0.01
   1903 x         14.242366     14.241367    -0.000999    Cartesian   -0.01
   1903 y        -13.369883    -13.371571    -0.001688    Cartesian    0.01
   1903 z          3.675225      3.678176     0.002951    Cartesian    0.08
   1904 x          2.846537      2.847651     0.001114    Cartesian    0.04
   1904 y        -14.463199    -14.456678     0.006521    Cartesian   -0.05
   1904 z          8.364237      8.365181     0.000944    Cartesian    0.01
   1905 x         15.639230     15.636167    -0.003063    Cartesian   -0.02
   1905 y        -11.287933    -11.286446     0.001487    Cartesian   -0.01
   1905 z         10.488012     10.488036     0.000023    Cartesian    0.00
   1906 x          6.538527      6.538879     0.000352    Cartesian    0.01
   1906 y         19.817003     19.814110    -0.002893    Cartesian   -0.01
   1906 z         -7.807038     -7.804539     0.002499    Cartesian   -0.03
   1907 x         23.239112     23.236813    -0.002299    Cartesian   -0.01
   1907 y          2.636652      2.635802    -0.000850    Cartesian   -0.03
   1907 z         12.621538     12.621418    -0.000119    Cartesian   -0.00
   1908 x         -9.664949     -9.664687     0.000262    Cartesian   -0.00
   1908 y         -5.488610     -5.490707    -0.002097    Cartesian    0.04
   1908 z         10.442249     10.441540    -0.000709    Cartesian   -0.01
   1909 x         17.583488     17.581681    -0.001807    Cartesian   -0.01
   1909 y         10.729513     10.728008    -0.001505    Cartesian   -0.01
   1909 z         18.027416     18.026772    -0.000644    Cartesian   -0.00
   1910 x         20.642036     20.641952    -0.000084    Cartesian   -0.00
   1910 y         -6.656423     -6.655164     0.001259    Cartesian   -0.02
   1910 z         -2.925014     -2.924450     0.000564    Cartesian   -0.02
   1911 x        -10.650327    -10.645140     0.005188    Cartesian   -0.05
   1911 y         12.086095     12.083477    -0.002618    Cartesian   -0.02
   1911 z         10.462457     10.460943    -0.001515    Cartesian   -0.01
   1912 x         23.139068     23.133543    -0.005525    Cartesian   -0.02
   1912 y         -4.046606     -4.043042     0.003564    Cartesian   -0.09
   1912 z         -0.302050     -0.302164    -0.000113    Cartesian    0.04
   1913 x         -2.713822     -2.709992     0.003830    Cartesian   -0.14
   1913 y         21.744179     21.748847     0.004667    Cartesian    0.02
   1913 z          3.684142      3.682756    -0.001386    Cartesian   -0.04
   1914 x         14.253049     14.257614     0.004565    Cartesian    0.03
   1914 y         -2.534403     -2.530950     0.003453    Cartesian   -0.14
   1914 z        -12.533494    -12.535572    -0.002079    Cartesian    0.02
   1915 x         -1.828990     -1.828159     0.000831    Cartesian   -0.05
   1915 y          0.514209      0.516804     0.002594    Cartesian    0.50
   1915 z        -13.778076    -13.770880     0.007196    Cartesian   -0.05
   1916 x         -1.809465     -1.810659    -0.001194    Cartesian    0.07
   1916 y         -9.497736     -9.496045     0.001691    Cartesian   -0.02
   1916 z         -7.861718     -7.859417     0.002301    Cartesian   -0.03
   1917 x        -13.124273    -13.125144    -0.000871    Cartesian    0.01
   1917 y          3.076159      3.075627    -0.000532    Cartesian   -0.02
   1917 z          8.352945      8.352435    -0.000510    Cartesian   -0.01
   1918 x         24.316220     24.315974    -0.000247    Cartesian   -0.00
   1918 y          9.564646      9.564581    -0.000064    Cartesian   -0.00
   1918 z          7.918242      7.916790    -0.001452    Cartesian   -0.02
   1919 x         20.853364     20.852345    -0.001019    Cartesian   -0.00
   1919 y         14.517618     14.518565     0.000947    Cartesian    0.01
   1919 z         11.231883     11.231093    -0.000791    Cartesian   -0.01
   1920 x          6.511879      6.510538    -0.001341    Cartesian   -0.02
   1920 y         22.605295     22.598463    -0.006832    Cartesian   -0.03
   1920 z         -2.917584     -2.918049    -0.000466    Cartesian    0.02
   1921 x         -9.117500     -9.113014     0.004486    Cartesian   -0.05
   1921 y         14.446924     14.444326    -0.002598    Cartesian   -0.02
   1921 z         11.168884     11.168407    -0.000477    Cartesian   -0.00
   1922 x          5.774955      5.770436    -0.004519    Cartesian   -0.08
   1922 y         15.022628     15.014688    -0.007940    Cartesian   -0.05
   1922 z        -12.529035    -12.521876     0.007159    Cartesian   -0.06
   1923 x         23.682956     23.681059    -0.001898    Cartesian   -0.01
   1923 y         12.277101     12.278157     0.001056    Cartesian    0.01
   1923 z          5.827491      5.827374    -0.000117    Cartesian   -0.00
   1924 x          4.590179      4.590521     0.000342    Cartesian    0.01
   1924 y         -2.784284     -2.781750     0.002533    Cartesian   -0.09
   1924 z        -14.461937    -14.460413     0.001524    Cartesian   -0.01
   1925 x         21.490189     21.490077    -0.000112    Cartesian   -0.00
   1925 y         15.416989     15.415886    -0.001103    Cartesian   -0.01
   1925 z          7.919728      7.918215    -0.001513    Cartesian   -0.02
   1926 x         20.742581     20.742627     0.000045    Cartesian    0.00
   1926 y         -3.001158     -2.999815     0.001343    Cartesian   -0.04
   1926 z         14.516995     14.517294     0.000299    Cartesian    0.00
   1927 x        -11.058252    -11.054900     0.003352    Cartesian   -0.03
   1927 y         -3.958734     -3.955089     0.003645    Cartesian   -0.09
   1927 z         -1.773444     -1.775452    -0.002008    Cartesian    0.11
   1928 x         11.201650     11.201761     0.000111    Cartesian    0.00
   1928 y         22.075194     22.071919    -0.003275    Cartesian   -0.01
   1928 z         -2.386896     -2.386748     0.000148    Cartesian   -0.01
   1929 x         -2.175795     -2.172899     0.002896    Cartesian   -0.13
   1929 y         -9.082763     -9.081682     0.001080    Cartesian   -0.01
   1929 z         15.860905     15.858364    -0.002541    Cartesian   -0.02
   1930 x         12.194151     12.194233     0.000082    Cartesian    0.00
   1930 y         11.724143     11.723582    -0.000560    Cartesian   -0.00
   1930 z        -13.212916    -13.208475     0.004442    Cartesian   -0.03
   1931 x         -6.735313     -6.732140     0.003173    Cartesian   -0.05
   1931 y         -1.045869     -1.043769     0.002100    Cartesian   -0.20
   1931 z         17.961445     17.957704    -0.003740    Cartesian   -0.02
   1932 x         -3.164734     -3.163539     0.001194    Cartesian   -0.04
   1932 y          4.880115      4.879116    -0.000999    Cartesian   -0.02
   1932 z         21.284019     21.282410    -0.001609    Cartesian   -0.01
   1933 x         10.339253     10.338428    -0.000824    Cartesian   -0.01
   1933 y        -14.445525    -14.443306     0.002219    Cartesian   -0.02
   1933 z          8.379986      8.380340     0.000354    Cartesian    0.00
   1934 x         16.075897     16.075780    -0.000117    Cartesian   -0.00
   1934 y         -8.871176     -8.868829     0.002346    Cartesian   -0.03
   1934 z         14.499759     14.498271    -0.001488    Cartesian   -0.01
   1935 x          6.320105      6.320703     0.000598    Cartesian    0.01
   1935 y         -8.580661     -8.579929     0.000732    Cartesian   -0.01
   1935 z        -11.158084    -11.155885     0.002199    Cartesian   -0.02
   1936 x         -6.824673     -6.820802     0.003871    Cartesian   -0.06
   1936 y          3.106353      3.103923    -0.002430    Cartesian   -0.08
   1936 z        -11.170862    -11.168426     0.002435    Cartesian   -0.02
   1937 x         -8.450466     -8.445787     0.004679    Cartesian   -0.06
   1937 y         16.169830     16.168141    -0.001689    Cartesian   -0.01
   1937 z         -2.435631     -2.430815     0.004816    Cartesian   -0.20
   1938 x          5.030462      5.028920    -0.001543    Cartesian   -0.03
   1938 y          3.244338      3.244651     0.000313    Cartesian    0.01
   1938 z        -15.853077    -15.848977     0.004100    Cartesian   -0.03
   1939 x          9.438456      9.437092    -0.001364    Cartesian   -0.01
   1939 y         20.408217     20.403715    -0.004502    Cartesian   -0.02
   1939 z         14.522940     14.521896    -0.001043    Cartesian   -0.01
   1940 x         -5.987204     -5.983249     0.003955    Cartesian   -0.07
   1940 y         14.344286     14.341927    -0.002359    Cartesian   -0.02
   1940 z         15.882599     15.880384    -0.002215    Cartesian   -0.01
   1941 x         -5.742813     -5.742652     0.000161    Cartesian   -0.00
   1941 y        -11.396920    -11.394515     0.002405    Cartesian   -0.02
   1941 z          7.135424      7.133335    -0.002090    Cartesian   -0.03
   1942 x         13.172406     13.171546    -0.000860    Cartesian   -0.01
   1942 y        -13.074215    -13.069847     0.004368    Cartesian   -0.03
   1942 z         -2.427312     -2.424962     0.002350    Cartesian   -0.10
   1943 x         23.679395     23.677868    -0.001527    Cartesian   -0.01
   1943 y          8.665274      8.666981     0.001707    Cartesian    0.02
   1943 z         11.230397     11.229507    -0.000890    Cartesian   -0.01
   1944 x         21.486628     21.486711     0.000083    Cartesian    0.00
   1944 y         11.805163     11.804800    -0.000363    Cartesian   -0.00
   1944 z         13.322634     13.320344    -0.002290    Cartesian   -0.02
   1945 x         -0.227975     -0.225944     0.002031    Cartesian   -0.89
   1945 y         16.546510     16.544396    -0.002114    Cartesian   -0.01
   1945 z         17.997403     17.994673    -0.002730    Cartesian   -0.02
   1946 x          1.945740      1.945068    -0.000672    Cartesian   -0.03
   1946 y         20.390543     20.384781    -0.005762    Cartesian   -0.03
   1946 z         14.507190     14.505713    -0.001476    Cartesian   -0.01
   1947 x          5.420527      5.423155     0.002629    Cartesian    0.05
   1947 y          1.229996      1.232775     0.002780    Cartesian    0.23
   1947 z         23.397337     23.391791    -0.005546    Cartesian   -0.02
   1948 x         20.756826     20.753671    -0.003155    Cartesian   -0.02
   1948 y         11.446148     11.443331    -0.002817    Cartesian   -0.02
   1948 z         -7.094630     -7.091543     0.003086    Cartesian   -0.04
   1949 x         -4.565159     -4.562176     0.002983    Cartesian   -0.07
   1949 y         -0.813662     -0.810459     0.003202    Cartesian   -0.39
   1949 z         19.874138     19.870312    -0.003826    Cartesian   -0.02
   1950 x         24.979722     24.975840    -0.003882    Cartesian   -0.02
   1950 y          7.675755      7.677520     0.001765    Cartesian    0.02
   1950 z         -0.283328     -0.283153     0.000176    Cartesian   -0.06
   1951 x         15.861213     15.860634    -0.000578    Cartesian   -0.00
   1951 y         20.721558     20.718485    -0.003073    Cartesian   -0.01
   1951 z          8.436152      8.433146    -0.003007    Cartesian   -0.04
   1952 x          5.686813      5.687731     0.000919    Cartesian    0.02
   1952 y         -5.868236     -5.861661     0.006574    Cartesian   -0.11
   1952 z        -13.248874    -13.238610     0.010264    Cartesian   -0.08
   1953 x         -9.228282     -9.224433     0.003849    Cartesian   -0.04
   1953 y         -3.071852     -3.067873     0.003980    Cartesian   -0.13
   1953 z         14.453996     14.449217    -0.004779    Cartesian   -0.03
   1954 x         16.093703     16.089547    -0.004156    Cartesian   -0.03
   1954 y          9.187958      9.184551    -0.003407    Cartesian   -0.04
   1954 z        -12.514772    -12.509620     0.005152    Cartesian   -0.04
   1955 x         -1.631906     -1.634553    -0.002647    Cartesian    0.16
   1955 y          7.240944      7.244199     0.003255    Cartesian    0.04
   1955 z         21.990446     21.988408    -0.002038    Cartesian   -0.01
   1956 x         13.142198     13.142395     0.000197    Cartesian    0.00
   1956 y        -13.897750    -13.898205    -0.000455    Cartesian    0.00
   1956 z          7.865048      7.860598    -0.004450    Cartesian   -0.06
   1957 x          7.271863      7.270539    -0.001324    Cartesian   -0.02
   1957 y         23.787837     23.782898    -0.004938    Cartesian   -0.02
   1957 z          7.207340      7.208645     0.001305    Cartesian    0.02
   1958 x          9.582803      9.581001    -0.001803    Cartesian   -0.02
   1958 y        -12.016247    -12.013709     0.002538    Cartesian   -0.02
   1958 z         -7.147823     -7.145357     0.002466    Cartesian   -0.03
   1959 x        -12.791684    -12.786281     0.005404    Cartesian   -0.04
   1959 y         -1.774145     -1.775955    -0.001810    Cartesian    0.10
   1959 z          0.325628      0.326654     0.001026    Cartesian    0.32
   1960 x         -9.328828     -9.326921     0.001907    Cartesian   -0.02
   1960 y         -6.727117     -6.723693     0.003425    Cartesian   -0.05
   1960 z         -2.988013     -2.983517     0.004496    Cartesian   -0.15
   1961 x        -12.154859    -12.152657     0.002203    Cartesian   -0.02
   1961 y         -0.874774     -0.872081     0.002693    Cartesian   -0.31
   1961 z         -2.986527     -2.982824     0.003704    Cartesian   -0.12
   1962 x         -9.962092     -9.957404     0.004688    Cartesian   -0.05
   1962 y         -4.014662     -4.015689    -0.001027    Cartesian    0.03
   1962 z         -5.078764     -5.077515     0.001249    Cartesian   -0.02
   1963 x          2.090087      2.090365     0.000278    Cartesian    0.01
   1963 y        -12.033921    -12.029353     0.004568    Cartesian   -0.04
   1963 z         -7.163573     -7.163663    -0.000090    Cartesian    0.00
   1964 x         19.669061     19.667828    -0.001233    Cartesian   -0.01
   1964 y         -6.317317     -6.315728     0.001589    Cartesian   -0.03
   1964 z         13.817364     13.815013    -0.002351    Cartesian   -0.02
   1965 x         -4.547353     -4.547374    -0.000021    Cartesian    0.00
   1965 y         17.245471     17.238859    -0.006612    Cartesian   -0.04
   1965 z         -7.140393     -7.136918     0.003475    Cartesian   -0.05
   1966 x         -3.813990     -3.813092     0.000898    Cartesian   -0.02
   1966 y         21.216312     21.212119    -0.004193    Cartesian   -0.02
   1966 z          7.873965      7.871508    -0.002457    Cartesian   -0.03
   1967 x         15.345649     15.341797    -0.003852    Cartesian   -0.03
   1967 y         -6.202159     -6.199755     0.002404    Cartesian   -0.04
   1967 z        -10.435907    -10.433918     0.001989    Cartesian   -0.02
   1968 x         -9.214038     -9.212017     0.002021    Cartesian   -0.02
   1968 y         11.375454     11.373471    -0.001983    Cartesian   -0.02
   1968 z         -7.157629     -7.156031     0.001598    Cartesian   -0.02
   1969 x          2.594495      2.597339     0.002843    Cartesian    0.11
   1969 y          7.082339      7.083144     0.000805    Cartesian    0.01
   1969 z         23.398823     23.394728    -0.004094    Cartesian   -0.02
   1970 x          6.172197      6.173129     0.000932    Cartesian    0.02
   1970 y         20.231977     20.229640    -0.002336    Cartesian   -0.01
   1970 z         15.915585     15.913596    -0.001989    Cartesian   -0.01
   1971 x        -12.158420    -12.156132     0.002289    Cartesian   -0.02
   1971 y         -4.486600     -4.484393     0.002207    Cartesian   -0.05
   1971 z          2.416379      2.418666     0.002287    Cartesian    0.09
   1972 x         -9.965653     -9.962001     0.003651    Cartesian   -0.04
   1972 y         -7.626489     -7.626449     0.000039    Cartesian   -0.00
   1972 z          0.324142      0.324978     0.000836    Cartesian    0.26
   1973 x         -1.843234     -1.843385    -0.000151    Cartesian    0.01
   1973 y        -13.933097    -13.928906     0.004191    Cartesian   -0.03
   1973 z          7.833549      7.834156     0.000607    Cartesian    0.01
   1974 x        -13.147359    -13.144834     0.002525    Cartesian   -0.02
   1974 y          9.476278      9.474647    -0.001630    Cartesian   -0.02
   1974 z          7.839493      7.838245    -0.001248    Cartesian   -0.02
--------------------------------------------------------------------------------


  Time to end of optimisation  =      792.3169 seconds


  Peak dynamic memory used =     566.00 MB 


  Timing analysis for GULP :

--------------------------------------------------------------------------------
  Task / Subroutine                                          Time (Seconds)
--------------------------------------------------------------------------------
  Calculation of reciprocal space energy and derivatives          0.0215
  Calculation of real space energy and derivatives                0.6459
  Calculation for region 1 energy and derivatives (2-b)         223.1524
  Calculation for region 2a energy                               60.3682
  Calculation for region 2b energy                                0.0102
  Calculation and manipulation of Hessian matrix                  0.1875
  Calculation of matrix inversion                               505.0674
  Symmetry generation of equivalent positions                     0.0003
  Global summation overhead                                       0.0001
--------------------------------------------------------------------------------
  Total CPU time                                                792.3169
--------------------------------------------------------------------------------


  Dump file written as ScCl3.grs



  **** GULP has completed with   2 warnings - beware! ****

  Job Finished at 18:58.49  7th February   2022                               

