********************************************************************************
*                       GENERAL UTILITY LATTICE PROGRAM                        *
*                                 Julian Gale                                  *
*                       Curtin Institute for Computation                       *
*                    School of Molecular and Life Sciences                     *
*                    Curtin University, Western Australia                      *
********************************************************************************
* Version = 5.2.0 * Last modified =   1st June 2020                            *
********************************************************************************
*  optimise     - perform optimisation run                                     *
*  conp         - constant pressure calculation                                *
*  property     - calculate properties for final geometry                      *
*  defect       - perform defect calculation after bulk run                    *
*  compare      - compare initial and final structures                         *
********************************************************************************

  Job Started  at 18:46.15  7th February   2022                               

  Number of CPUs =     1


  Total number of configurations input =      1

********************************************************************************
*  Input for Configuration =   1                                               *
********************************************************************************

  Formula = Sc2Cl6                                                      

  Number of irreducible atoms/shells =      14


  Total number atoms/shells =      14

  Dimensionality = 3               :  Bulk   



  Cartesian lattice vectors (Angstroms) :

        7.453000    0.000000    0.000000
        4.624520    5.844744    0.000000
        4.624520    2.237970    5.399307

  Cell parameters (Angstroms/Degrees):

  a =       7.4530    alpha =  51.6480
  b =       7.4530    beta  =  51.6480
  c =       7.4530    gamma =  51.6480

  Initial cell volume =         235.198534 Angs**3

  Temperature of configuration =   0.00     K 

  Pressure of configuration =         0.000 GPa 

  Fractional coordinates of asymmetric unit :

--------------------------------------------------------------------------------
   No.  Atomic       x           y          z         Charge      Occupancy
        Label      (Frac)      (Frac)     (Frac)        (e)         (Frac)  
--------------------------------------------------------------------------------
      1 Sc    c    0.333900    0.333900    0.333900     0.00000    1.000000    
      2 Sc    c    0.666100 *  0.666100 *  0.666100 *   0.00000    1.000000    
      3 Cl    c    0.073700 *  0.443900 *  0.705300 *   0.00000    1.000000    
      4 Cl    c    0.294700 *  0.926300 *  0.556100 *   0.00000    1.000000    
      5 Cl    c    0.443900 *  0.705300 *  0.073700 *   0.00000    1.000000    
      6 Cl    c    0.556100 *  0.294700 *  0.926300 *   0.00000    1.000000    
      7 Cl    c    0.705300 *  0.073700 *  0.443900 *   0.00000    1.000000    
      8 Cl    c    0.926300 *  0.556100 *  0.294700 *   0.00000    1.000000    
      9 Cl    s    0.073700 *  0.443900 *  0.705300 *   0.00000    1.000000    
     10 Cl    s    0.294700 *  0.926300 *  0.556100 *   0.00000    1.000000    
     11 Cl    s    0.443900 *  0.705300 *  0.073700 *   0.00000    1.000000    
     12 Cl    s    0.556100 *  0.294700 *  0.926300 *   0.00000    1.000000    
     13 Cl    s    0.705300 *  0.073700 *  0.443900 *   0.00000    1.000000    
     14 Cl    s    0.926300 *  0.556100 *  0.294700 *   0.00000    1.000000    
--------------------------------------------------------------------------------



********************************************************************************
*  General input information                                                   *
********************************************************************************

  Species output for all configurations : 

--------------------------------------------------------------------------------
  Species    Type    Atomic    Atomic    Charge       Radii (Angs)     Library
                     Number     Mass       (e)     Cova   Ionic  VDW   Symbol
--------------------------------------------------------------------------------
    Sc       Core       21      44.96   0.000000   1.440  0.000  2.150          
    Cl       Core       17      35.45   0.000000   0.990  0.000  1.650          
    Cl       Shell      17       0.00   0.000000   0.990  0.000  1.650          
--------------------------------------------------------------------------------


  Lattice summation method               =    Ewald          (3-D)
                                         =    Parry          (2-D)
                                         =    Saunders et al (1-D)
  Accuracy factor for lattice sums       =   12.000


  Analytic derivatives to be used

  Time limit = Infinity

********************************************************************************
*  Output for configuration   1                                                *
********************************************************************************


  Components of energy : 

--------------------------------------------------------------------------------
  Interatomic potentials     =           0.00000000 eV    
  Monopole - monopole (real) =           0.00000000 eV    
  Monopole - monopole (recip)=           0.00000000 eV    
  Monopole - monopole (total)=           0.00000000 eV    
--------------------------------------------------------------------------------
  Total lattice energy       =           0.00000000 eV    
--------------------------------------------------------------------------------
  Total lattice energy       =               0.0000 kJ/(mole unit cells)
--------------------------------------------------------------------------------


  Number of variables =       45

  Maximum number of calculations  =          1000
  Maximum Hessian update interval =            10
  Maximum step size               =   1.000000000
  Maximum parameter tolerance     =   0.000010000
  Maximum function  tolerance     =   0.000010000
  Maximum gradient  tolerance     =   0.001000000
  Maximum gradient  component     =   0.010000000

  Symmetry not applied to optimisation

  Cell parameters to be optimised using strains

  Newton-Raphson optimiser to be used

  BFGS hessian update to be used

  Lower half triangular hessian to be used

  Start of bulk optimisation :

  Cycle:      0 Energy:         0.000000  Gnorm:      0.000000  CPU:    0.011


  **** Optimisation achieved ****


  Final energy =       0.00000000 eV
  Final Gnorm  =       0.00000000

  Components of energy : 

--------------------------------------------------------------------------------
  Interatomic potentials     =           0.00000000 eV    
  Monopole - monopole (real) =           0.00000000 eV    
  Monopole - monopole (recip)=           0.00000000 eV    
  Monopole - monopole (total)=           0.00000000 eV    
--------------------------------------------------------------------------------
  Total lattice energy       =           0.00000000 eV    
--------------------------------------------------------------------------------
  Total lattice energy       =               0.0000 kJ/(mole unit cells)
--------------------------------------------------------------------------------

  Final fractional coordinates of atoms :

--------------------------------------------------------------------------------
   No.  Atomic        x           y          z          Radius
        Label       (Frac)      (Frac)     (Frac)       (Angs) 
--------------------------------------------------------------------------------
     1  Sc    c     0.333900    0.333900    0.333900    0.000000
     2  Sc    c     0.666100    0.666100    0.666100    0.000000
     3  Cl    c     0.073700    0.443900    0.705300    0.000000
     4  Cl    c     0.294700    0.926300    0.556100    0.000000
     5  Cl    c     0.443900    0.705300    0.073700    0.000000
     6  Cl    c     0.556100    0.294700    0.926300    0.000000
     7  Cl    c     0.705300    0.073700    0.443900    0.000000
     8  Cl    c     0.926300    0.556100    0.294700    0.000000
     9  Cl    s     0.073700    0.443900    0.705300    0.000000
    10  Cl    s     0.294700    0.926300    0.556100    0.000000
    11  Cl    s     0.443900    0.705300    0.073700    0.000000
    12  Cl    s     0.556100    0.294700    0.926300    0.000000
    13  Cl    s     0.705300    0.073700    0.443900    0.000000
    14  Cl    s     0.926300    0.556100    0.294700    0.000000
--------------------------------------------------------------------------------

  Final Cartesian lattice vectors (Angstroms) :

        7.453000    0.000000    0.000000
        4.624520    5.844744    0.000000
        4.624520    2.237970    5.399307


  Final cell parameters and derivatives :

--------------------------------------------------------------------------------
       a            7.453000 Angstrom     dE/de1(xx)     0.000000 eV/strain
       b            7.453000 Angstrom     dE/de2(yy)     0.000000 eV/strain
       c            7.453000 Angstrom     dE/de3(zz)     0.000000 eV/strain
       alpha       51.648000 Degrees      dE/de4(yz)     0.000000 eV/strain
       beta        51.648000 Degrees      dE/de5(xz)     0.000000 eV/strain
       gamma       51.648000 Degrees      dE/de6(xy)     0.000000 eV/strain
--------------------------------------------------------------------------------

  Primitive cell volume =           235.198534 Angs**3

  Density of cell =      2.136579 g/cm**3

  Non-primitive cell volume =           235.198534 Angs**3


  Final internal derivatives :

--------------------------------------------------------------------------------
   No.  Atomic          a             b             c           Radius
        Label          (eV)          (eV)          (eV)        (eV/Angs)
--------------------------------------------------------------------------------
      1 Sc    c       0.000000      0.000000      0.000000      0.000000
      2 Sc    c       0.000000      0.000000      0.000000      0.000000
      3 Cl    c       0.000000      0.000000      0.000000      0.000000
      4 Cl    c       0.000000      0.000000      0.000000      0.000000
      5 Cl    c       0.000000      0.000000      0.000000      0.000000
      6 Cl    c       0.000000      0.000000      0.000000      0.000000
      7 Cl    c       0.000000      0.000000      0.000000      0.000000
      8 Cl    c       0.000000      0.000000      0.000000      0.000000
      9 Cl    s       0.000000      0.000000      0.000000      0.000000
     10 Cl    s       0.000000      0.000000      0.000000      0.000000
     11 Cl    s       0.000000      0.000000      0.000000      0.000000
     12 Cl    s       0.000000      0.000000      0.000000      0.000000
     13 Cl    s       0.000000      0.000000      0.000000      0.000000
     14 Cl    s       0.000000      0.000000      0.000000      0.000000
--------------------------------------------------------------------------------
  Maximum abs         0.000000      0.000000      0.000000      0.000000
--------------------------------------------------------------------------------

  Comparison of initial and final structures : 

--------------------------------------------------------------------------------
  Parameter   Initial value   Final value   Difference    Units      Percent
--------------------------------------------------------------------------------
    Volume       235.198534    235.198534     0.000000    Angs**3      0.00
    a              7.453000      7.453000     0.000000    Angstroms    0.00
    b              7.453000      7.453000     0.000000    Angstroms    0.00
    c              7.453000      7.453000     0.000000    Angstroms    0.00
    alpha         51.648000     51.648000     0.000000    Degrees      0.00
    beta          51.648000     51.648000     0.000000    Degrees      0.00
    gamma         51.648000     51.648000     0.000000    Degrees      0.00
      1 x          0.333900      0.333900     0.000000    Fractional   0.00
      1 y          0.333900      0.333900     0.000000    Fractional   0.00
      1 z          0.333900      0.333900     0.000000    Fractional   0.00
      2 x          0.666100      0.666100     0.000000    Fractional   0.00
      2 y          0.666100      0.666100     0.000000    Fractional   0.00
      2 z          0.666100      0.666100     0.000000    Fractional   0.00
      3 x          0.073700      0.073700     0.000000    Fractional   0.00
      3 y          0.443900      0.443900     0.000000    Fractional   0.00
      3 z          0.705300      0.705300     0.000000    Fractional   0.00
      4 x          0.294700      0.294700     0.000000    Fractional   0.00
      4 y          0.926300      0.926300     0.000000    Fractional   0.00
      4 z          0.556100      0.556100     0.000000    Fractional   0.00
      5 x          0.443900      0.443900     0.000000    Fractional   0.00
      5 y          0.705300      0.705300     0.000000    Fractional   0.00
      5 z          0.073700      0.073700     0.000000    Fractional   0.00
      6 x          0.556100      0.556100     0.000000    Fractional   0.00
      6 y          0.294700      0.294700     0.000000    Fractional   0.00
      6 z          0.926300      0.926300     0.000000    Fractional   0.00
      7 x          0.705300      0.705300     0.000000    Fractional   0.00
      7 y          0.073700      0.073700     0.000000    Fractional   0.00
      7 z          0.443900      0.443900     0.000000    Fractional   0.00
      8 x          0.926300      0.926300     0.000000    Fractional   0.00
      8 y          0.556100      0.556100     0.000000    Fractional   0.00
      8 z          0.294700      0.294700     0.000000    Fractional   0.00
      9 x          0.073700      0.073700     0.000000    Fractional   0.00
      9 y          0.443900      0.443900     0.000000    Fractional   0.00
      9 z          0.705300      0.705300     0.000000    Fractional   0.00
     10 x          0.294700      0.294700     0.000000    Fractional   0.00
     10 y          0.926300      0.926300     0.000000    Fractional   0.00
     10 z          0.556100      0.556100     0.000000    Fractional   0.00
     11 x          0.443900      0.443900     0.000000    Fractional   0.00
     11 y          0.705300      0.705300     0.000000    Fractional   0.00
     11 z          0.073700      0.073700     0.000000    Fractional   0.00
     12 x          0.556100      0.556100     0.000000    Fractional   0.00
     12 y          0.294700      0.294700     0.000000    Fractional   0.00
     12 z          0.926300      0.926300     0.000000    Fractional   0.00
     13 x          0.705300      0.705300     0.000000    Fractional   0.00
     13 y          0.073700      0.073700     0.000000    Fractional   0.00
     13 z          0.443900      0.443900     0.000000    Fractional   0.00
     14 x          0.926300      0.926300     0.000000    Fractional   0.00
     14 y          0.556100      0.556100     0.000000    Fractional   0.00
     14 z          0.294700      0.294700     0.000000    Fractional   0.00
--------------------------------------------------------------------------------



!!!!!!!!!!!!!!!!!!!!!!!!!!!!!!!!!!!!!!!!!!!!!!!!!!!!!!!!!!!!!!!!!!!!!!!!!!!!!!!!
!! WARNING : Properties cannot be calculated - matrix is singular
!!!!!!!!!!!!!!!!!!!!!!!!!!!!!!!!!!!!!!!!!!!!!!!!!!!!!!!!!!!!!!!!!!!!!!!!!!!!!!!!


  Time to end of optimisation =       0.0123 seconds

********************************************************************************
*  Defect calculation for configuration   1 :                                  *
********************************************************************************


  **** No defects for configuration number    1 ****


  Peak dynamic memory used =       1.86 MB 


  Timing analysis for GULP :

--------------------------------------------------------------------------------
  Task / Subroutine                                          Time (Seconds)
--------------------------------------------------------------------------------
--------------------------------------------------------------------------------
  Total CPU time                                                  0.0124
--------------------------------------------------------------------------------



  **** GULP has completed with 1 warning - beware! ****

  Job Finished at 18:46.15  7th February   2022                               

