 # Li5831 Sc1715 Cl10976
 
       18522  atoms
           3  atom types
 
      0.000000000000      71.962066540000  xlo xhi
      0.000000000000      72.193153774310  ylo yhi
      0.000000000000      72.009716754748  zlo zhi
     -0.074067934023      -0.228135434136      -0.206434166609  xy xz yz
 
Masses
 
            1   6.94000000              # Li
            2   44.95591200             # Sc
            3   35.45000000             # Cl
 
Atoms # charge
 
         1    1   1.000000        3.797088632810       3.813444873565       9.084604726734
         2    1   1.000000        3.764497857156       3.783954278925      19.371706914528
         3    1   1.000000        3.731907081503       3.754463684285      29.658809102321
         4    1   1.000000        3.699316303568       3.724973087581      39.945912010212
         5    1   1.000000        3.666725527915       3.695482492940      50.233014198005
         6    1   1.000000        3.634134752262       3.665991898300      60.520116385798
         7    1   1.000000        3.601543976608       3.636501303660      70.807218573592
         8    1   1.000000        3.786507498849      14.126753071275       9.084604726734
         9    1   1.000000        3.753916723196      14.097262476635      19.371706914528
        10    1   1.000000        3.721325947542      14.067771881995      29.658809102321
        11    1   1.000000        3.688735169608      14.038281285290      39.945912010212
        12    1   1.000000        3.656144393954      14.008790690650      50.233014198005
        13    1   1.000000        3.623553618301      13.979300096010      60.520116385798
        14    1   1.000000        3.590962842648      13.949809501370      70.807218573592
        15    1   1.000000        3.775926365629      24.440060547053       9.084604726734
        16    1   1.000000        3.743335589975      24.410569952413      19.371706914528
        17    1   1.000000        3.710744814322      24.381079357773      29.658809102321
        18    1   1.000000        3.678154036387      24.351588761068      39.945912010212
        19    1   1.000000        3.645563260734      24.322098166428      50.233014198005
        20    1   1.000000        3.612972485081      24.292607571788      60.520116385798
        21    1   1.000000        3.580381709427      24.263116977148      70.807218573592
        22    1   1.000000        3.765345232409      34.753368022831       9.084604726734
        23    1   1.000000        3.732754456755      34.723877428191      19.371706914528
        24    1   1.000000        3.700163681102      34.694386833551      29.658809102321
        25    1   1.000000        3.667572903167      34.664896236846      39.945912010212
        26    1   1.000000        3.634982127514      34.635405642206      50.233014198005
        27    1   1.000000        3.602391351861      34.605915047566      60.520116385798
        28    1   1.000000        3.569800576207      34.576424452926      70.807218573592
        29    1   1.000000        3.754764099188      45.066675498609       9.084604726734
        30    1   1.000000        3.722173323535      45.037184903969      19.371706914528
        31    1   1.000000        3.689582547882      45.007694309329      29.658809102321
        32    1   1.000000        3.656991769947      44.978203712625      39.945912010212
        33    1   1.000000        3.624400994294      44.948713117984      50.233014198005
        34    1   1.000000        3.591810218640      44.919222523344      60.520116385798
        35    1   1.000000        3.559219442987      44.889731928704      70.807218573592
        36    1   1.000000        3.744182965228      55.379983696319       9.084604726734
        37    1   1.000000        3.711592189574      55.350493101679      19.371706914528
        38    1   1.000000        3.679001413921      55.321002507039      29.658809102321
        39    1   1.000000        3.646410635986      55.291511910334      39.945912010212
        40    1   1.000000        3.613819860333      55.262021315694      50.233014198005
        41    1   1.000000        3.581229084680      55.232530721054      60.520116385798
        42    1   1.000000        3.548638309026      55.203040126414      70.807218573592
        43    1   1.000000        3.733601832007      65.693291172097       9.084604726734
        44    1   1.000000        3.701011056354      65.663800577457      19.371706914528
        45    1   1.000000        3.668420280701      65.634309982817      29.658809102321
        46    1   1.000000        3.635829502766      65.604819386112      39.945912010212
        47    1   1.000000        3.603238727113      65.575328791472      50.233014198005
        48    1   1.000000        3.570647951459      65.545838196832      60.520116385798
        49    1   1.000000        3.538057175806      65.516347602192      70.807218573592
        50    1   1.000000       14.077383647204       3.813444873565       9.084604726734
        51    1   1.000000       14.044792871551       3.783954278925      19.371706914528
        52    1   1.000000       14.012202095897       3.754463684285      29.658809102321
        53    1   1.000000       13.979611317963       3.724973087581      39.945912010212
        54    1   1.000000       13.947020542309       3.695482492940      50.233014198005
        55    1   1.000000       13.914429766656       3.665991898300      60.520116385798
        56    1   1.000000       13.881838991003       3.636501303660      70.807218573592
        57    1   1.000000       14.066802513243      14.126753071275       9.084604726734
        58    1   1.000000       14.034211737590      14.097262476635      19.371706914528
        59    1   1.000000       14.001620961936      14.067771881995      29.658809102321
        60    1   1.000000       13.969030184002      14.038281285290      39.945912010212
        61    1   1.000000       13.936439408348      14.008790690650      50.233014198005
        62    1   1.000000       13.903848632695      13.979300096010      60.520116385798
        63    1   1.000000       13.871257857042      13.949809501370      70.807218573592
        64    1   1.000000       14.056221380023      24.440060547053       9.084604726734
        65    1   1.000000       14.023630604370      24.410569952413      19.371706914528
        66    1   1.000000       13.991039828716      24.381079357773      29.658809102321
        67    1   1.000000       13.958449050782      24.351588761068      39.945912010212
        68    1   1.000000       13.925858275128      24.322098166428      50.233014198005
        69    1   1.000000       13.893267499475      24.292607571788      60.520116385798
        70    1   1.000000       13.860676723821      24.263116977148      70.807218573592
        71    1   1.000000       14.045640246803      34.753368022831       9.084604726734
        72    1   1.000000       14.013049471149      34.723877428191      19.371706914528
        73    1   1.000000       13.980458695496      34.694386833551      29.658809102321
        74    1   1.000000       13.947867917561      34.664896236846      39.945912010212
        75    1   1.000000       13.915277141908      34.635405642206      50.233014198005
        76    1   1.000000       13.882686366255      34.605915047566      60.520116385798
        77    1   1.000000       13.850095590601      34.576424452926      70.807218573592
        78    1   1.000000       14.035059113583      45.066675498609       9.084604726734
        79    1   1.000000       14.002468337929      45.037184903969      19.371706914528
        80    1   1.000000       13.969877562276      45.007694309329      29.658809102321
        81    1   1.000000       13.937286784341      44.978203712625      39.945912010212
        82    1   1.000000       13.904696008688      44.948713117984      50.233014198005
        83    1   1.000000       13.872105233034      44.919222523344      60.520116385798
        84    1   1.000000       13.839514457381      44.889731928704      70.807218573592
        85    1   1.000000       14.024477979622      55.379983696319       9.084604726734
        86    1   1.000000       13.991887203968      55.350493101679      19.371706914528
        87    1   1.000000       13.959296428315      55.321002507039      29.658809102321
        88    1   1.000000       13.926705650380      55.291511910334      39.945912010212
        89    1   1.000000       13.894114874727      55.262021315694      50.233014198005
        90    1   1.000000       13.861524099074      55.232530721054      60.520116385798
        91    1   1.000000       13.828933323420      55.203040126414      70.807218573592
        92    1   1.000000       14.013896846402      65.693291172097       9.084604726734
        93    1   1.000000       13.981306070748      65.663800577457      19.371706914528
        94    1   1.000000       13.948715295095      65.634309982817      29.658809102321
        95    1   1.000000       13.916124517160      65.604819386112      39.945912010212
        96    1   1.000000       13.883533741507      65.575328791472      50.233014198005
        97    1   1.000000       13.850942965853      65.545838196832      60.520116385798
        98    1   1.000000       13.818352190200      65.516347602192      70.807218573592
        99    1   1.000000       24.357678661598       3.813444873565       9.084604726734
       100    1   1.000000       24.325087885945       3.783954278925      19.371706914528
       101    1   1.000000       24.292497110291       3.754463684285      29.658809102321
       102    1   1.000000       24.259906332357       3.724973087581      39.945912010212
       103    1   1.000000       24.227315556703       3.695482492940      50.233014198005
       104    1   1.000000       24.194724781050       3.665991898300      60.520116385798
       105    1   1.000000       24.162134005397       3.636501303660      70.807218573592
       106    1   1.000000       24.347097527637      14.126753071275       9.084604726734
       107    1   1.000000       24.314506751984      14.097262476635      19.371706914528
       108    1   1.000000       24.281915976330      14.067771881995      29.658809102321
       109    1   1.000000       24.249325198396      14.038281285290      39.945912010212
       110    1   1.000000       24.216734422742      14.008790690650      50.233014198005
       111    1   1.000000       24.184143647089      13.979300096010      60.520116385798
       112    1   1.000000       24.151552871436      13.949809501370      70.807218573592
       113    1   1.000000       24.336516394417      24.440060547053       9.084604726734
       114    1   1.000000       24.303925618764      24.410569952413      19.371706914528
       115    1   1.000000       24.271334843110      24.381079357773      29.658809102321
       116    1   1.000000       24.238744065176      24.351588761068      39.945912010212
       117    1   1.000000       24.206153289522      24.322098166428      50.233014198005
       118    1   1.000000       24.173562513869      24.292607571788      60.520116385798
       119    1   1.000000       24.140971738216      24.263116977148      70.807218573592
       120    1   1.000000       24.325935261197      34.753368022831       9.084604726734
       121    1   1.000000       24.293344485543      34.723877428191      19.371706914528
       122    1   1.000000       24.260753709890      34.694386833551      29.658809102321
       123    1   1.000000       24.228162931955      34.664896236846      39.945912010212
       124    1   1.000000       24.195572156302      34.635405642206      50.233014198005
       125    1   1.000000       24.162981380649      34.605915047566      60.520116385798
       126    1   1.000000       24.130390604995      34.576424452926      70.807218573592
       127    1   1.000000       24.315354127977      45.066675498609       9.084604726734
       128    1   1.000000       24.282763352323      45.037184903969      19.371706914528
       129    1   1.000000       24.250172576670      45.007694309329      29.658809102321
       130    1   1.000000       24.217581798735      44.978203712625      39.945912010212
       131    1   1.000000       24.184991023082      44.948713117984      50.233014198005
       132    1   1.000000       24.152400247429      44.919222523344      60.520116385798
       133    1   1.000000       24.119809471775      44.889731928704      70.807218573592
       134    1   1.000000       24.304772994016      55.379983696319       9.084604726734
       135    1   1.000000       24.272182218362      55.350493101679      19.371706914528
       136    1   1.000000       24.239591442709      55.321002507039      29.658809102321
       137    1   1.000000       24.207000664774      55.291511910334      39.945912010212
       138    1   1.000000       24.174409889121      55.262021315694      50.233014198005
       139    1   1.000000       24.141819113468      55.232530721054      60.520116385798
       140    1   1.000000       24.109228337814      55.203040126414      70.807218573592
       141    1   1.000000       24.294191860796      65.693291172097       9.084604726734
       142    1   1.000000       24.261601085142      65.663800577457      19.371706914528
       143    1   1.000000       24.229010309489      65.634309982817      29.658809102321
       144    1   1.000000       24.196419531554      65.604819386112      39.945912010212
       145    1   1.000000       24.163828755901      65.575328791472      50.233014198005
       146    1   1.000000       24.131237980248      65.545838196832      60.520116385798
       147    1   1.000000       24.098647204594      65.516347602192      70.807218573592
       148    1   1.000000       34.637974395613       3.813444873565       9.084604726734
       149    1   1.000000       34.605383619959       3.783954278925      19.371706914528
       150    1   1.000000       34.572792844306       3.754463684285      29.658809102321
       151    1   1.000000       34.540202066371       3.724973087581      39.945912010212
       152    1   1.000000       34.507611290718       3.695482492940      50.233014198005
       153    1   1.000000       34.475020515065       3.665991898300      60.520116385798
       154    1   1.000000       34.442429739411       3.636501303660      70.807218573592
       155    1   1.000000       34.627393261652      14.126753071275       9.084604726734
       156    1   1.000000       34.594802485999      14.097262476635      19.371706914528
       157    1   1.000000       34.562211710345      14.067771881995      29.658809102321
       158    1   1.000000       34.529620932411      14.038281285290      39.945912010212
       159    1   1.000000       34.497030156757      14.008790690650      50.233014198005
       160    1   1.000000       34.464439381104      13.979300096010      60.520116385798
       161    1   1.000000       34.431848605451      13.949809501370      70.807218573592
       162    1   1.000000       34.616812128432      24.440060547053       9.084604726734
       163    1   1.000000       34.584221352778      24.410569952413      19.371706914528
       164    1   1.000000       34.551630577125      24.381079357773      29.658809102321
       165    1   1.000000       34.519039799190      24.351588761068      39.945912010212
       166    1   1.000000       34.486449023537      24.322098166428      50.233014198005
       167    1   1.000000       34.453858247884      24.292607571788      60.520116385798
       168    1   1.000000       34.421267472230      24.263116977148      70.807218573592
       169    1   1.000000       34.606230995212      34.753368022831       9.084604726734
       170    1   1.000000       34.573640219558      34.723877428191      19.371706914528
       171    1   1.000000       34.541049443905      34.694386833551      29.658809102321
       172    1   1.000000       34.508458665970      34.664896236846      39.945912010212
       173    1   1.000000       34.475867890317      34.635405642206      50.233014198005
       174    1   1.000000       34.443277114664      34.605915047566      60.520116385798
       175    1   1.000000       34.410686339010      34.576424452926      70.807218573592
       176    1   1.000000       34.595649861991      45.066675498609       9.084604726734
       177    1   1.000000       34.563059086338      45.037184903969      19.371706914528
       178    1   1.000000       34.530468310685      45.007694309329      29.658809102321
       179    1   1.000000       34.497877532750      44.978203712625      39.945912010212
       180    1   1.000000       34.465286757097      44.948713117984      50.233014198005
       181    1   1.000000       34.432695981443      44.919222523344      60.520116385798
       182    1   1.000000       34.400105205790      44.889731928704      70.807218573592
       183    1   1.000000       34.585068728031      55.379983696319       9.084604726734
       184    1   1.000000       34.552477952377      55.350493101679      19.371706914528
       185    1   1.000000       34.519887176724      55.321002507039      29.658809102321
       186    1   1.000000       34.487296398789      55.291511910334      39.945912010212
       187    1   1.000000       34.454705623136      55.262021315694      50.233014198005
       188    1   1.000000       34.422114847482      55.232530721054      60.520116385798
       189    1   1.000000       34.389524071829      55.203040126414      70.807218573592
       190    1   1.000000       34.574487594810      65.693291172097       9.084604726734
       191    1   1.000000       34.541896819157      65.663800577457      19.371706914528
       192    1   1.000000       34.509306043504      65.634309982817      29.658809102321
       193    1   1.000000       34.476715265569      65.604819386112      39.945912010212
       194    1   1.000000       34.444124489916      65.575328791472      50.233014198005
       195    1   1.000000       34.411533714262      65.545838196832      60.520116385798
       196    1   1.000000       34.378942938609      65.516347602192      70.807218573592
       197    1   1.000000       44.918269410007       3.813444873565       9.084604726734
       198    1   1.000000       44.885678634354       3.783954278925      19.371706914528
       199    1   1.000000       44.853087858700       3.754463684285      29.658809102321
       200    1   1.000000       44.820497080765       3.724973087581      39.945912010212
       201    1   1.000000       44.787906305112       3.695482492940      50.233014198005
       202    1   1.000000       44.755315529459       3.665991898300      60.520116385798
       203    1   1.000000       44.722724753805       3.636501303660      70.807218573592
       204    1   1.000000       44.907688276046      14.126753071275       9.084604726734
       205    1   1.000000       44.875097500393      14.097262476635      19.371706914528
       206    1   1.000000       44.842506724739      14.067771881995      29.658809102321
       207    1   1.000000       44.809915946805      14.038281285290      39.945912010212
       208    1   1.000000       44.777325171151      14.008790690650      50.233014198005
       209    1   1.000000       44.744734395498      13.979300096010      60.520116385798
       210    1   1.000000       44.712143619845      13.949809501370      70.807218573592
       211    1   1.000000       44.897107142826      24.440060547053       9.084604726734
       212    1   1.000000       44.864516367173      24.410569952413      19.371706914528
       213    1   1.000000       44.831925591519      24.381079357773      29.658809102321
       214    1   1.000000       44.799334813584      24.351588761068      39.945912010212
       215    1   1.000000       44.766744037931      24.322098166428      50.233014198005
       216    1   1.000000       44.734153262278      24.292607571788      60.520116385798
       217    1   1.000000       44.701562486624      24.263116977148      70.807218573592
       218    1   1.000000       44.886526009606      34.753368022831       9.084604726734
       219    1   1.000000       44.853935233952      34.723877428191      19.371706914528
       220    1   1.000000       44.821344458299      34.694386833551      29.658809102321
       221    1   1.000000       44.788753680364      34.664896236846      39.945912010212
       222    1   1.000000       44.756162904711      34.635405642206      50.233014198005
       223    1   1.000000       44.723572129058      34.605915047566      60.520116385798
       224    1   1.000000       44.690981353404      34.576424452926      70.807218573592
       225    1   1.000000       44.875944876386      45.066675498609       9.084604726734
       226    1   1.000000       44.843354100732      45.037184903969      19.371706914528
       227    1   1.000000       44.810763325079      45.007694309329      29.658809102321
       228    1   1.000000       44.778172547144      44.978203712625      39.945912010212
       229    1   1.000000       44.745581771491      44.948713117984      50.233014198005
       230    1   1.000000       44.712990995837      44.919222523344      60.520116385798
       231    1   1.000000       44.680400220184      44.889731928704      70.807218573592
       232    1   1.000000       44.865363742425      55.379983696319       9.084604726734
       233    1   1.000000       44.832772966771      55.350493101679      19.371706914528
       234    1   1.000000       44.800182191118      55.321002507039      29.658809102321
       235    1   1.000000       44.767591413183      55.291511910334      39.945912010212
       236    1   1.000000       44.735000637530      55.262021315694      50.233014198005
       237    1   1.000000       44.702409861877      55.232530721054      60.520116385798
       238    1   1.000000       44.669819086223      55.203040126414      70.807218573592
       239    1   1.000000       44.854782609204      65.693291172097       9.084604726734
       240    1   1.000000       44.822191833551      65.663800577457      19.371706914528
       241    1   1.000000       44.789601057898      65.634309982817      29.658809102321
       242    1   1.000000       44.757010279963      65.604819386112      39.945912010212
       243    1   1.000000       44.724419504310      65.575328791472      50.233014198005
       244    1   1.000000       44.691828728656      65.545838196832      60.520116385798
       245    1   1.000000       44.659237953003      65.516347602192      70.807218573592
       246    1   1.000000       55.198564424401       3.813444873565       9.084604726734
       247    1   1.000000       55.165973648748       3.783954278925      19.371706914528
       248    1   1.000000       55.133382873094       3.754463684285      29.658809102321
       249    1   1.000000       55.100792095160       3.724973087581      39.945912010212
       250    1   1.000000       55.068201319506       3.695482492940      50.233014198005
       251    1   1.000000       55.035610543853       3.665991898300      60.520116385798
       252    1   1.000000       55.003019768200       3.636501303660      70.807218573592
       253    1   1.000000       55.187983290440      14.126753071275       9.084604726734
       254    1   1.000000       55.155392514787      14.097262476635      19.371706914528
       255    1   1.000000       55.122801739133      14.067771881995      29.658809102321
       256    1   1.000000       55.090210961199      14.038281285290      39.945912010212
       257    1   1.000000       55.057620185545      14.008790690650      50.233014198005
       258    1   1.000000       55.025029409892      13.979300096010      60.520116385798
       259    1   1.000000       54.992438634239      13.949809501370      70.807218573592
       260    1   1.000000       55.177402157220      24.440060547053       9.084604726734
       261    1   1.000000       55.144811381567      24.410569952413      19.371706914528
       262    1   1.000000       55.112220605913      24.381079357773      29.658809102321
       263    1   1.000000       55.079629827979      24.351588761068      39.945912010212
       264    1   1.000000       55.047039052325      24.322098166428      50.233014198005
       265    1   1.000000       55.014448276672      24.292607571788      60.520116385798
       266    1   1.000000       54.981857501019      24.263116977148      70.807218573592
       267    1   1.000000       55.166821024000      34.753368022831       9.084604726734
       268    1   1.000000       55.134230248346      34.723877428191      19.371706914528
       269    1   1.000000       55.101639472693      34.694386833551      29.658809102321
       270    1   1.000000       55.069048694758      34.664896236846      39.945912010212
       271    1   1.000000       55.036457919105      34.635405642206      50.233014198005
       272    1   1.000000       55.003867143452      34.605915047566      60.520116385798
       273    1   1.000000       54.971276367798      34.576424452926      70.807218573592
       274    1   1.000000       55.156239890780      45.066675498609       9.084604726734
       275    1   1.000000       55.123649115126      45.037184903969      19.371706914528
       276    1   1.000000       55.091058339473      45.007694309329      29.658809102321
       277    1   1.000000       55.058467561538      44.978203712625      39.945912010212
       278    1   1.000000       55.025876785885      44.948713117984      50.233014198005
       279    1   1.000000       54.993286010232      44.919222523344      60.520116385798
       280    1   1.000000       54.960695234578      44.889731928704      70.807218573592
       281    1   1.000000       55.145658756819      55.379983696319       9.084604726734
       282    1   1.000000       55.113067981165      55.350493101679      19.371706914528
       283    1   1.000000       55.080477205512      55.321002507039      29.658809102321
       284    1   1.000000       55.047886427577      55.291511910334      39.945912010212
       285    1   1.000000       55.015295651924      55.262021315694      50.233014198005
       286    1   1.000000       54.982704876271      55.232530721054      60.520116385798
       287    1   1.000000       54.950114100617      55.203040126414      70.807218573592
       288    1   1.000000       55.135077623599      65.693291172097       9.084604726734
       289    1   1.000000       55.102486847945      65.663800577457      19.371706914528
       290    1   1.000000       55.069896072292      65.634309982817      29.658809102321
       291    1   1.000000       55.037305294357      65.604819386112      39.945912010212
       292    1   1.000000       55.004714518704      65.575328791472      50.233014198005
       293    1   1.000000       54.972123743051      65.545838196832      60.520116385798
       294    1   1.000000       54.939532967397      65.516347602192      70.807218573592
       295    1   1.000000       65.478859438795       3.813444873565       9.084604726734
       296    1   1.000000       65.446268663142       3.783954278925      19.371706914528
       297    1   1.000000       65.413677887488       3.754463684285      29.658809102321
       298    1   1.000000       65.381087109554       3.724973087581      39.945912010212
       299    1   1.000000       65.348496333900       3.695482492940      50.233014198005
       300    1   1.000000       65.315905558247       3.665991898300      60.520116385798
       301    1   1.000000       65.283314782594       3.636501303660      70.807218573592
       302    1   1.000000       65.468278304834      14.126753071275       9.084604726734
       303    1   1.000000       65.435687529181      14.097262476635      19.371706914528
       304    1   1.000000       65.403096753528      14.067771881995      29.658809102321
       305    1   1.000000       65.370505975593      14.038281285290      39.945912010212
       306    1   1.000000       65.337915199939      14.008790690650      50.233014198005
       307    1   1.000000       65.305324424286      13.979300096010      60.520116385798
       308    1   1.000000       65.272733648633      13.949809501370      70.807218573592
       309    1   1.000000       65.457697171614      24.440060547053       9.084604726734
       310    1   1.000000       65.425106395961      24.410569952413      19.371706914528
       311    1   1.000000       65.392515620307      24.381079357773      29.658809102321
       312    1   1.000000       65.359924842373      24.351588761068      39.945912010212
       313    1   1.000000       65.327334066719      24.322098166428      50.233014198005
       314    1   1.000000       65.294743291066      24.292607571788      60.520116385798
       315    1   1.000000       65.262152515413      24.263116977148      70.807218573592
       316    1   1.000000       65.447116038394      34.753368022831       9.084604726734
       317    1   1.000000       65.414525262741      34.723877428191      19.371706914528
       318    1   1.000000       65.381934487087      34.694386833551      29.658809102321
       319    1   1.000000       65.349343709152      34.664896236846      39.945912010212
       320    1   1.000000       65.316752933499      34.635405642206      50.233014198005
       321    1   1.000000       65.284162157846      34.605915047566      60.520116385798
       322    1   1.000000       65.251571382192      34.576424452926      70.807218573592
       323    1   1.000000       65.436534905174      45.066675498609       9.084604726734
       324    1   1.000000       65.403944129520      45.037184903969      19.371706914528