 # Li5831 Sc1715 Cl10976
 
       18522  atoms
           3  atom types
 
      0.000000000000      72.825900000000  xlo xhi
      0.000000000000      72.825900000000  ylo yhi
      0.000000000000      72.825900000000  zlo zhi
 
Masses
 
            1   6.94000000              # Li
            2   44.95591200             # Sc
            3   35.45000000             # Cl
 
Atoms # charge
 
         1    1   1.000000        3.901387604037       3.901387604037       9.103237500000
         2    1   1.000000        3.901387604037       3.901387604037      19.506937291926
         3    1   1.000000        3.901387604037       3.901387604037      29.910637812111
         4    1   1.000000        3.901387604037       3.901387604037      40.314337604037
         5    1   1.000000        3.901387604037       3.901387604037      50.718037395963
         6    1   1.000000        3.901387604037       3.901387604037      61.121737187889
         7    1   1.000000        3.901387604037       3.901387604037      71.525437708074
         8    1   1.000000        3.901387604037      14.305087395963       9.103237500000
         9    1   1.000000        3.901387604037      14.305087395963      19.506937291926
        10    1   1.000000        3.901387604037      14.305087395963      29.910637812111
        11    1   1.000000        3.901387604037      14.305087395963      40.314337604037
        12    1   1.000000        3.901387604037      14.305087395963      50.718037395963
        13    1   1.000000        3.901387604037      14.305087395963      61.121737187889
        14    1   1.000000        3.901387604037      14.305087395963      71.525437708074
        15    1   1.000000        3.901387604037      24.708787187889       9.103237500000
        16    1   1.000000        3.901387604037      24.708787187889      19.506937291926
        17    1   1.000000        3.901387604037      24.708787187889      29.910637812111
        18    1   1.000000        3.901387604037      24.708787187889      40.314337604037
        19    1   1.000000        3.901387604037      24.708787187889      50.718037395963
        20    1   1.000000        3.901387604037      24.708787187889      61.121737187889
        21    1   1.000000        3.901387604037      24.708787187889      71.525437708074
        22    1   1.000000        3.901387604037      35.112487708074       9.103237500000
        23    1   1.000000        3.901387604037      35.112487708074      19.506937291926
        24    1   1.000000        3.901387604037      35.112487708074      29.910637812111
        25    1   1.000000        3.901387604037      35.112487708074      40.314337604037
        26    1   1.000000        3.901387604037      35.112487708074      50.718037395963
        27    1   1.000000        3.901387604037      35.112487708074      61.121737187889
        28    1   1.000000        3.901387604037      35.112487708074      71.525437708074
        29    1   1.000000        3.901387604037      45.516187500000       9.103237500000
        30    1   1.000000        3.901387604037      45.516187500000      19.506937291926
        31    1   1.000000        3.901387604037      45.516187500000      29.910637812111
        32    1   1.000000        3.901387604037      45.516187500000      40.314337604037
        33    1   1.000000        3.901387604037      45.516187500000      50.718037395963
        34    1   1.000000        3.901387604037      45.516187500000      61.121737187889
        35    1   1.000000        3.901387604037      45.516187500000      71.525437708074
        36    1   1.000000        3.901387604037      55.919887291926       9.103237500000
        37    1   1.000000        3.901387604037      55.919887291926      19.506937291926
        38    1   1.000000        3.901387604037      55.919887291926      29.910637812111
        39    1   1.000000        3.901387604037      55.919887291926      40.314337604037
        40    1   1.000000        3.901387604037      55.919887291926      50.718037395963
        41    1   1.000000        3.901387604037      55.919887291926      61.121737187889
        42    1   1.000000        3.901387604037      55.919887291926      71.525437708074
        43    1   1.000000        3.901387604037      66.323587812111       9.103237500000
        44    1   1.000000        3.901387604037      66.323587812111      19.506937291926
        45    1   1.000000        3.901387604037      66.323587812111      29.910637812111
        46    1   1.000000        3.901387604037      66.323587812111      40.314337604037
        47    1   1.000000        3.901387604037      66.323587812111      50.718037395963
        48    1   1.000000        3.901387604037      66.323587812111      61.121737187889
        49    1   1.000000        3.901387604037      66.323587812111      71.525437708074
        50    1   1.000000       14.305087395963       3.901387604037       9.103237500000
        51    1   1.000000       14.305087395963       3.901387604037      19.506937291926
        52    1   1.000000       14.305087395963       3.901387604037      29.910637812111
        53    1   1.000000       14.305087395963       3.901387604037      40.314337604037
        54    1   1.000000       14.305087395963       3.901387604037      50.718037395963
        55    1   1.000000       14.305087395963       3.901387604037      61.121737187889
        56    1   1.000000       14.305087395963       3.901387604037      71.525437708074
        57    1   1.000000       14.305087395963      14.305087395963       9.103237500000
        58    1   1.000000       14.305087395963      14.305087395963      19.506937291926
        59    1   1.000000       14.305087395963      14.305087395963      29.910637812111
        60    1   1.000000       14.305087395963      14.305087395963      40.314337604037
        61    1   1.000000       14.305087395963      14.305087395963      50.718037395963
        62    1   1.000000       14.305087395963      14.305087395963      61.121737187889
        63    1   1.000000       14.305087395963      14.305087395963      71.525437708074
        64    1   1.000000       14.305087395963      24.708787187889       9.103237500000
        65    1   1.000000       14.305087395963      24.708787187889      19.506937291926
        66    1   1.000000       14.305087395963      24.708787187889      29.910637812111
        67    1   1.000000       14.305087395963      24.708787187889      40.314337604037
        68    1   1.000000       14.305087395963      24.708787187889      50.718037395963
        69    1   1.000000       14.305087395963      24.708787187889      61.121737187889
        70    1   1.000000       14.305087395963      24.708787187889      71.525437708074
        71    1   1.000000       14.305087395963      35.112487708074       9.103237500000
        72    1   1.000000       14.305087395963      35.112487708074      19.506937291926
        73    1   1.000000       14.305087395963      35.112487708074      29.910637812111
        74    1   1.000000       14.305087395963      35.112487708074      40.314337604037
        75    1   1.000000       14.305087395963      35.112487708074      50.718037395963
        76    1   1.000000       14.305087395963      35.112487708074      61.121737187889
        77    1   1.000000       14.305087395963      35.112487708074      71.525437708074
        78    1   1.000000       14.305087395963      45.516187500000       9.103237500000
        79    1   1.000000       14.305087395963      45.516187500000      19.506937291926
        80    1   1.000000       14.305087395963      45.516187500000      29.910637812111
        81    1   1.000000       14.305087395963      45.516187500000      40.314337604037
        82    1   1.000000       14.305087395963      45.516187500000      50.718037395963
        83    1   1.000000       14.305087395963      45.516187500000      61.121737187889
        84    1   1.000000       14.305087395963      45.516187500000      71.525437708074
        85    1   1.000000       14.305087395963      55.919887291926       9.103237500000
        86    1   1.000000       14.305087395963      55.919887291926      19.506937291926
        87    1   1.000000       14.305087395963      55.919887291926      29.910637812111
        88    1   1.000000       14.305087395963      55.919887291926      40.314337604037
        89    1   1.000000       14.305087395963      55.919887291926      50.718037395963
        90    1   1.000000       14.305087395963      55.919887291926      61.121737187889
        91    1   1.000000       14.305087395963      55.919887291926      71.525437708074
        92    1   1.000000       14.305087395963      66.323587812111       9.103237500000
        93    1   1.000000       14.305087395963      66.323587812111      19.506937291926
        94    1   1.000000       14.305087395963      66.323587812111      29.910637812111
        95    1   1.000000       14.305087395963      66.323587812111      40.314337604037
        96    1   1.000000       14.305087395963      66.323587812111      50.718037395963
        97    1   1.000000       14.305087395963      66.323587812111      61.121737187889
        98    1   1.000000       14.305087395963      66.323587812111      71.525437708074
        99    1   1.000000       24.708787187889       3.901387604037       9.103237500000
       100    1   1.000000       24.708787187889       3.901387604037      19.506937291926
       101    1   1.000000       24.708787187889       3.901387604037      29.910637812111
       102    1   1.000000       24.708787187889       3.901387604037      40.314337604037
       103    1   1.000000       24.708787187889       3.901387604037      50.718037395963
       104    1   1.000000       24.708787187889       3.901387604037      61.121737187889
       105    1   1.000000       24.708787187889       3.901387604037      71.525437708074
       106    1   1.000000       24.708787187889      14.305087395963       9.103237500000
       107    1   1.000000       24.708787187889      14.305087395963      19.506937291926
       108    1   1.000000       24.708787187889      14.305087395963      29.910637812111
       109    1   1.000000       24.708787187889      14.305087395963      40.314337604037
       110    1   1.000000       24.708787187889      14.305087395963      50.718037395963
       111    1   1.000000       24.708787187889      14.305087395963      61.121737187889
       112    1   1.000000       24.708787187889      14.305087395963      71.525437708074
       113    1   1.000000       24.708787187889      24.708787187889       9.103237500000
       114    1   1.000000       24.708787187889      24.708787187889      19.506937291926
       115    1   1.000000       24.708787187889      24.708787187889      29.910637812111
       116    1   1.000000       24.708787187889      24.708787187889      40.314337604037
       117    1   1.000000       24.708787187889      24.708787187889      50.718037395963
       118    1   1.000000       24.708787187889      24.708787187889      61.121737187889
       119    1   1.000000       24.708787187889      24.708787187889      71.525437708074
       120    1   1.000000       24.708787187889      35.112487708074       9.103237500000
       121    1   1.000000       24.708787187889      35.112487708074      19.506937291926
       122    1   1.000000       24.708787187889      35.112487708074      29.910637812111
       123    1   1.000000       24.708787187889      35.112487708074      40.314337604037
       124    1   1.000000       24.708787187889      35.112487708074      50.718037395963
       125    1   1.000000       24.708787187889      35.112487708074      61.121737187889
       126    1   1.000000       24.708787187889      35.112487708074      71.525437708074
       127    1   1.000000       24.708787187889      45.516187500000       9.103237500000
       128    1   1.000000       24.708787187889      45.516187500000      19.506937291926
       129    1   1.000000       24.708787187889      45.516187500000      29.910637812111
       130    1   1.000000       24.708787187889      45.516187500000      40.314337604037
       131    1   1.000000       24.708787187889      45.516187500000      50.718037395963
       132    1   1.000000       24.708787187889      45.516187500000      61.121737187889
       133    1   1.000000       24.708787187889      45.516187500000      71.525437708074
       134    1   1.000000       24.708787187889      55.919887291926       9.103237500000
       135    1   1.000000       24.708787187889      55.919887291926      19.506937291926
       136    1   1.000000       24.708787187889      55.919887291926      29.910637812111
       137    1   1.000000       24.708787187889      55.919887291926      40.314337604037
       138    1   1.000000       24.708787187889      55.919887291926      50.718037395963
       139    1   1.000000       24.708787187889      55.919887291926      61.121737187889
       140    1   1.000000       24.708787187889      55.919887291926      71.525437708074
       141    1   1.000000       24.708787187889      66.323587812111       9.103237500000
       142    1   1.000000       24.708787187889      66.323587812111      19.506937291926
       143    1   1.000000       24.708787187889      66.323587812111      29.910637812111
       144    1   1.000000       24.708787187889      66.323587812111      40.314337604037
       145    1   1.000000       24.708787187889      66.323587812111      50.718037395963
       146    1   1.000000       24.708787187889      66.323587812111      61.121737187889
       147    1   1.000000       24.708787187889      66.323587812111      71.525437708074
       148    1   1.000000       35.112487708074       3.901387604037       9.103237500000
       149    1   1.000000       35.112487708074       3.901387604037      19.506937291926
       150    1   1.000000       35.112487708074       3.901387604037      29.910637812111
       151    1   1.000000       35.112487708074       3.901387604037      40.314337604037
       152    1   1.000000       35.112487708074       3.901387604037      50.718037395963
       153    1   1.000000       35.112487708074       3.901387604037      61.121737187889
       154    1   1.000000       35.112487708074       3.901387604037      71.525437708074
       155    1   1.000000       35.112487708074      14.305087395963       9.103237500000
       156    1   1.000000       35.112487708074      14.305087395963      19.506937291926
       157    1   1.000000       35.112487708074      14.305087395963      29.910637812111
       158    1   1.000000       35.112487708074      14.305087395963      40.314337604037
       159    1   1.000000       35.112487708074      14.305087395963      50.718037395963
       160    1   1.000000       35.112487708074      14.305087395963      61.121737187889
       161    1   1.000000       35.112487708074      14.305087395963      71.525437708074
       162    1   1.000000       35.112487708074      24.708787187889       9.103237500000
       163    1   1.000000       35.112487708074      24.708787187889      19.506937291926
       164    1   1.000000       35.112487708074      24.708787187889      29.910637812111
       165    1   1.000000       35.112487708074      24.708787187889      40.314337604037
       166    1   1.000000       35.112487708074      24.708787187889      50.718037395963
       167    1   1.000000       35.112487708074      24.708787187889      61.121737187889
       168    1   1.000000       35.112487708074      24.708787187889      71.525437708074
       169    1   1.000000       35.112487708074      35.112487708074       9.103237500000
       170    1   1.000000       35.112487708074      35.112487708074      19.506937291926
       171    1   1.000000       35.112487708074      35.112487708074      29.910637812111
       172    1   1.000000       35.112487708074      35.112487708074      40.314337604037
       173    1   1.000000       35.112487708074      35.112487708074      50.718037395963
       174    1   1.000000       35.112487708074      35.112487708074      61.121737187889
       175    1   1.000000       35.112487708074      35.112487708074      71.525437708074
       176    1   1.000000       35.112487708074      45.516187500000       9.103237500000
       177    1   1.000000       35.112487708074      45.516187500000      19.506937291926
       178    1   1.000000       35.112487708074      45.516187500000      29.910637812111
       179    1   1.000000       35.112487708074      45.516187500000      40.314337604037
       180    1   1.000000       35.112487708074      45.516187500000      50.718037395963
       181    1   1.000000       35.112487708074      45.516187500000      61.121737187889
       182    1   1.000000       35.112487708074      45.516187500000      71.525437708074
       183    1   1.000000       35.112487708074      55.919887291926       9.103237500000
       184    1   1.000000       35.112487708074      55.919887291926      19.506937291926
       185    1   1.000000       35.112487708074      55.919887291926      29.910637812111
       186    1   1.000000       35.112487708074      55.919887291926      40.314337604037
       187    1   1.000000       35.112487708074      55.919887291926      50.718037395963
       188    1   1.000000       35.112487708074      55.919887291926      61.121737187889
       189    1   1.000000       35.112487708074      55.919887291926      71.525437708074
       190    1   1.000000       35.112487708074      66.323587812111       9.103237500000
       191    1   1.000000       35.112487708074      66.323587812111      19.506937291926
       192    1   1.000000       35.112487708074      66.323587812111      29.910637812111
       193    1   1.000000       35.112487708074      66.323587812111      40.314337604037
       194    1   1.000000       35.112487708074      66.323587812111      50.718037395963
       195    1   1.000000       35.112487708074      66.323587812111      61.121737187889
       196    1   1.000000       35.112487708074      66.323587812111      71.525437708074
       197    1   1.000000       45.516187500000       3.901387604037       9.103237500000
       198    1   1.000000       45.516187500000       3.901387604037      19.506937291926
       199    1   1.000000       45.516187500000       3.901387604037      29.910637812111
       200    1   1.000000       45.516187500000       3.901387604037      40.314337604037
       201    1   1.000000       45.516187500000       3.901387604037      50.718037395963
       202    1   1.000000       45.516187500000       3.901387604037      61.121737187889
       203    1   1.000000       45.516187500000       3.901387604037      71.525437708074
       204    1   1.000000       45.516187500000      14.305087395963       9.103237500000
       205    1   1.000000       45.516187500000      14.305087395963      19.506937291926
       206    1   1.000000       45.516187500000      14.305087395963      29.910637812111
       207    1   1.000000       45.516187500000      14.305087395963      40.314337604037
       208    1   1.000000       45.516187500000      14.305087395963      50.718037395963
       209    1   1.000000       45.516187500000      14.305087395963      61.121737187889
       210    1   1.000000       45.516187500000      14.305087395963      71.525437708074
       211    1   1.000000       45.516187500000      24.708787187889       9.103237500000
       212    1   1.000000       45.516187500000      24.708787187889      19.506937291926
       213    1   1.000000       45.516187500000      24.708787187889      29.910637812111
       214    1   1.000000       45.516187500000      24.708787187889      40.314337604037
       215    1   1.000000       45.516187500000      24.708787187889      50.718037395963
       216    1   1.000000       45.516187500000      24.708787187889      61.121737187889
       217    1   1.000000       45.516187500000      24.708787187889      71.525437708074
       218    1   1.000000       45.516187500000      35.112487708074       9.103237500000
       219    1   1.000000       45.516187500000      35.112487708074      19.506937291926
       220    1   1.000000       45.516187500000      35.112487708074      29.910637812111
       221    1   1.000000       45.516187500000      35.112487708074      40.314337604037
       222    1   1.000000       45.516187500000      35.112487708074      50.718037395963
       223    1   1.000000       45.516187500000      35.112487708074      61.121737187889
       224    1   1.000000       45.516187500000      35.112487708074      71.525437708074
       225    1   1.000000       45.516187500000      45.516187500000       9.103237500000
       226    1   1.000000       45.516187500000      45.516187500000      19.506937291926
       227    1   1.000000       45.516187500000      45.516187500000      29.910637812111
       228    1   1.000000       45.516187500000      45.516187500000      40.314337604037
       229    1   1.000000       45.516187500000      45.516187500000      50.718037395963
       230    1   1.000000       45.516187500000      45.516187500000      61.121737187889
       231    1   1.000000       45.516187500000      45.516187500000      71.525437708074
       232    1   1.000000       45.516187500000      55.919887291926       9.103237500000
       233    1   1.000000       45.516187500000      55.919887291926      19.506937291926
       234    1   1.000000       45.516187500000      55.919887291926      29.910637812111
       235    1   1.000000       45.516187500000      55.919887291926      40.314337604037
       236    1   1.000000       45.516187500000      55.919887291926      50.718037395963
       237    1   1.000000       45.516187500000      55.919887291926      61.121737187889
       238    1   1.000000       45.516187500000      55.919887291926      71.525437708074
       239    1   1.000000       45.516187500000      66.323587812111       9.103237500000
       240    1   1.000000       45.516187500000      66.323587812111      19.506937291926
       241    1   1.000000       45.516187500000      66.323587812111      29.910637812111
       242    1   1.000000       45.516187500000      66.323587812111      40.314337604037
       243    1   1.000000       45.516187500000      66.323587812111      50.718037395963
       244    1   1.000000       45.516187500000      66.323587812111      61.121737187889
       245    1   1.000000       45.516187500000      66.323587812111      71.525437708074
       246    1   1.000000       55.919887291926       3.901387604037       9.103237500000
       247    1   1.000000       55.919887291926       3.901387604037      19.506937291926
       248    1   1.000000       55.919887291926       3.901387604037      29.910637812111
       249    1   1.000000       55.919887291926       3.901387604037      40.314337604037
       250    1   1.000000       55.919887291926       3.901387604037      50.718037395963
       251    1   1.000000       55.919887291926       3.901387604037      61.121737187889
       252    1   1.000000       55.919887291926       3.901387604037      71.525437708074
       253    1   1.000000       55.919887291926      14.305087395963       9.103237500000
       254    1   1.000000       55.919887291926      14.305087395963      19.506937291926
       255    1   1.000000       55.919887291926      14.305087395963      29.910637812111
       256    1   1.000000       55.919887291926      14.305087395963      40.314337604037
       257    1   1.000000       55.919887291926      14.305087395963      50.718037395963
       258    1   1.000000       55.919887291926      14.305087395963      61.121737187889
       259    1   1.000000       55.919887291926      14.305087395963      71.525437708074
       260    1   1.000000       55.919887291926      24.708787187889       9.103237500000
       261    1   1.000000       55.919887291926      24.708787187889      19.506937291926
       262    1   1.000000       55.919887291926      24.708787187889      29.910637812111
       263    1   1.000000       55.919887291926      24.708787187889      40.314337604037
       264    1   1.000000       55.919887291926      24.708787187889      50.718037395963
       265    1   1.000000       55.919887291926      24.708787187889      61.121737187889
       266    1   1.000000       55.919887291926      24.708787187889      71.525437708074
       267    1   1.000000       55.919887291926      35.112487708074       9.103237500000
       268    1   1.000000       55.919887291926      35.112487708074      19.506937291926
       269    1   1.000000       55.919887291926      35.112487708074      29.910637812111
       270    1   1.000000       55.919887291926      35.112487708074      40.314337604037
       271    1   1.000000       55.919887291926      35.112487708074      50.718037395963
       272    1   1.000000       55.919887291926      35.112487708074      61.121737187889
       273    1   1.000000       55.919887291926      35.112487708074      71.525437708074
       274    1   1.000000       55.919887291926      45.516187500000       9.103237500000
       275    1   1.000000       55.919887291926      45.516187500000      19.506937291926
       276    1   1.000000       55.919887291926      45.516187500000      29.910637812111
       277    1   1.000000       55.919887291926      45.516187500000      40.314337604037
       278    1   1.000000       55.919887291926      45.516187500000      50.718037395963
       279    1   1.000000       55.919887291926      45.516187500000      61.121737187889
       280    1   1.000000       55.919887291926      45.516187500000      71.525437708074
       281    1   1.000000       55.919887291926      55.919887291926       9.103237500000
       282    1   1.000000       55.919887291926      55.919887291926      19.506937291926
       283    1   1.000000       55.919887291926      55.919887291926      29.910637812111
       284    1   1.000000       55.919887291926      55.919887291926      40.314337604037
       285    1   1.000000       55.919887291926      55.919887291926      50.718037395963
       286    1   1.000000       55.919887291926      55.919887291926      61.121737187889
       287    1   1.000000       55.919887291926      55.919887291926      71.525437708074
       288    1   1.000000       55.919887291926      66.323587812111       9.103237500000
       289    1   1.000000       55.919887291926      66.323587812111      19.506937291926
       290    1   1.000000       55.919887291926      66.323587812111      29.910637812111
       291    1   1.000000       55.919887291926      66.323587812111      40.314337604037
       292    1   1.000000       55.919887291926      66.323587812111      50.718037395963
       293    1   1.000000       55.919887291926      66.323587812111      61.121737187889
       294    1   1.000000       55.919887291926      66.323587812111      71.525437708074
       295    1   1.000000       66.323587812111       3.901387604037       9.103237500000
       296    1   1.000000       66.323587812111       3.901387604037      19.506937291926
       297    1   1.000000       66.323587812111       3.901387604037      29.910637812111
       298    1   1.000000       66.323587812111       3.901387604037      40.314337604037
       299    1   1.000000       66.323587812111       3.901387604037      50.718037395963
       300    1   1.000000       66.323587812111       3.901387604037      61.121737187889
       301    1   1.000000       66.323587812111       3.901387604037      71.525437708074
       302    1   1.000000       66.323587812111      14.305087395963       9.103237500000
       303    1   1.000000       66.323587812111      14.305087395963      19.506937291926
       304    1   1.000000       66.323587812111      14.305087395963      29.910637812111
       305    1   1.000000       66.323587812111      14.305087395963      40.314337604037
       306    1   1.000000       66.323587812111      14.305087395963      50.718037395963
       307    1   1.000000       66.323587812111      14.305087395963      61.121737187889
       308    1   1.000000       66.323587812111      14.305087395963      71.525437708074
       309    1   1.000000       66.323587812111      24.708787187889       9.103237500000
       310    1   1.000000       66.323587812111      24.708787187889      19.506937291926
       311    1   1.000000       66.323587812111      24.708787187889      29.910637812111
       312    1   1.000000       66.323587812111      24.708787187889      40.314337604037
       313    1   1.000000       66.323587812111      24.708787187889      50.718037395963
       314    1   1.000000       66.323587812111      24.708787187889      61.121737187889
       315    1   1.000000       66.323587812111      24.708787187889      71.525437708074
       316    1   1.000000       66.323587812111      35.112487708074       9.103237500000
       317    1   1.000000       66.323587812111      35.112487708074      19.506937291926
       318    1   1.000000       66.323587812111      35.112487708074      29.910637812111
       319    1   1.000000       66.323587812111      35.112487708074      40.314337604037
       320    1   1.000000       66.323587812111      35.112487708074      50.718037395963
       321    1   1.000000       66.323587812111      35.112487708074      61.121737187889
       322    1   1.000000       66.323587812111      35.112487708074      71.525437708074
       323    1   1.000000       66.323587812111      45.516187500000       9.103237500000
       324    1   1.000000       66.323587812111      45.516187500000      19.506937291926
       325    1   1.000000       66.323587812111      45.516187500000      29.910637812111