 # Na343 Cl343
 
         686  atoms
           2  atom types
 
      0.000000000000      28.172447940000  xlo xhi
      0.000000000000      24.398055602835  ylo yhi
      0.000000000000      23.002707419374  zlo zhi
