LAMMPS (7 Aug 2019)
  using 1 OpenMP thread(s) per MPI task

# Input written to comply with LAMMPS 2017-08-11 00:00:00

# Atomic Configuration
units           metal
boundary        p p p
box             tilt large
atom_style      charge
read_data       monoclinic_9x9x9.lmp
  triclinic box = (0 0 0) to (92.5227 92.8198 92.5839) with tilt (-0.0952302 -0.293317 -0.265415)
  4 by 8 by 5 MPI processor grid
  reading atoms ...
  39366 atoms
  read_data CPU = 0.129977 secs
group           lithium type 1
12393 atoms in group lithium
group           scandium type 2
3645 atoms in group scandium
group           chloride type 3
23328 atoms in group chloride
variable        T1 equal 600
variable        dt equal 0.001

# Potential Setup
pair_style      buck/coul/long 12.0
pair_coeff      * * 0.0 1.0 0.0
pair_coeff      1 1    360.530000  0.161000   0.000000 # Li Li
pair_coeff      1 3    421.040000  0.344000   0.000000 # Li Cl
pair_coeff      3 3   1227.200000  0.321000  14.530000 # Cl Cl
pair_coeff      2 3  12131.350000  0.250700   0.000000 # Sc Cl

kspace_style    pppm 1e-05

# General Setup
timestep        ${dt}
timestep        0.001

# Thermodynamic Information Output
thermo_style    custom step temp epair emol etotal press lx ly lz fmax cpu cpuremain
thermo          1000

# Intial Atom Velocity
velocity        all create ${T1} 948964 dist gaussian rot yes
velocity        all create 600 948964 dist gaussian rot yes

# Stage 0: npt_equilibriation
restart         0
fix             int all npt aniso 1.0 1.0 $(1000*dt) temp ${T1} ${T1} $(100*dt)
fix             int all npt aniso 1.0 1.0 1 temp ${T1} ${T1} $(100*dt)
fix             int all npt aniso 1.0 1.0 1 temp 600 ${T1} $(100*dt)
fix             int all npt aniso 1.0 1.0 1 temp 600 600 $(100*dt)
fix             int all npt aniso 1.0 1.0 1 temp 600 600 0.10000000000000000555
run             50000
PPPM initialization ...
  using 12-bit tables for long-range coulomb (../kspace.cpp:323)
  G vector (1/distance) = 0.265467
  grid = 81 81 81
  stencil order = 5
  estimated absolute RMS force accuracy = 0.000177575
  estimated relative force accuracy = 1.23319e-05
  using double precision MKL FFT
  3d grid and FFT values/proc = 10557 4374
Neighbor list info ...
  update every 1 steps, delay 10 steps, check yes
  max neighbors/atom: 2000, page size: 100000
  master list distance cutoff = 14
  ghost atom cutoff = 14
  binsize = 7, bins = 14 14 14
  1 neighbor lists, perpetual/occasional/extra = 1 0 0
  (1) pair buck/coul/long, perpetual
      attributes: half, newton on
      pair build: half/bin/newton/tri
      stencil: half/bin/3d/newton/tri
      bin: standard
Per MPI rank memory allocation (min/avg/max) = 4.199 | 4.267 | 4.689 Mbytes
Step Temp E_pair E_mol TotEng Press Lx Ly Lz Fmax CPU CPULeft 
       0          600   -266217.01            0   -263164.02     1312.261    92.522657    92.819769    92.583922    2.7005784            0            0 
    1000    593.26238   -273144.52            0   -270125.81    1215.9104    98.277466    98.634744    99.005249    4.7563442    6.9310281    339.62042 
    2000    599.56994   -273305.65            0   -270254.84    63.908404    98.567732    100.23659    99.860579    4.2407052    14.009387    336.22532 
    3000    597.91971   -273414.27            0   -270371.86    79.789329     98.38026    101.08587    99.720577    5.0575477    20.958488    328.34966 
    4000    602.03767   -273498.24            0   -270434.87   -43.053084    98.228154    101.50402    99.680164    4.9433909    27.986419    321.84383 
    5000     598.5805   -273553.22            0   -270507.45    -33.49684    97.889909    101.80287    99.637543    5.0569004     35.04218    315.37963 
    6000    600.06299   -273592.48            0   -270539.17   -372.31496     97.75477    102.10741    99.584413    4.2860509    42.017655    308.12948 
    7000    598.55529   -273629.14            0    -270583.5    108.14401    97.765656    102.30172    99.408618    4.8873439    48.607819    298.59089 
    8000    602.05206   -273636.63            0    -270573.2    -329.2917    97.696361    102.52804    99.513173    4.6130229    55.958564    293.78247 
    9000    599.96794    -273642.1            0   -270589.26    14.783708    97.348836    102.75303    99.488839    4.3577244     62.56407     285.0141 
   10000    598.99624    -273672.8            0   -270624.91    57.378856    97.251879    102.76507    99.349223    4.0226813    69.721555    278.88622 
   11000    600.61921   -273685.06            0   -270628.91    100.61851    97.095345     103.0643    99.303648    4.3943919    76.828766     272.3929 
   12000    597.75367   -273708.88            0   -270667.32   -240.43339    97.050761    103.10125    99.241298    4.5838407    83.648555    264.88709 
   13000    603.40474   -273741.26            0   -270670.94   -171.11492     96.94374    103.18855    99.414646    4.3598875    90.290499    256.98065 
   14000    602.15897    -273749.3            0   -270685.32   -50.993757    96.829889      103.038    99.330229    4.3289897    97.665111    251.13886 
   15000    598.62076   -273766.26            0   -270720.29    61.700406    96.942594    103.38853    99.072928    4.1466445    104.29308    243.35053 
   16000    602.10976   -273732.98            0   -270669.25    36.143038    96.785891    103.31683    99.294976    4.5946452    111.34969    236.61809 
   17000    600.92391   -273768.98            0   -270711.29   -200.43354    96.902925    103.23006    99.200759    4.5977191    118.47774     229.9862 
   18000    597.91652      -273784            0    -270741.6    139.49185    96.617432    103.16758    99.163335    5.0151617    125.08384    222.37128 
   19000    601.06698   -273724.24            0   -270665.81   -75.031895    96.748507    103.37521    99.076289    5.1619243    131.73891    214.94243 
   20000    600.60905   -273758.65            0   -270702.56    -81.28812    96.801428    103.29266    99.002916    4.6086086    138.93881    208.40821 
   21000    599.90725   -273787.94            0   -270735.42    163.31179    96.593361    103.22346    99.043566    4.6711252    145.72892     201.2447 
   22000    599.40501   -273796.64            0   -270746.67    -14.26528    96.505776    103.25117    99.070405    5.3103033    152.65563    194.28899 
   23000    602.80923   -273813.21            0   -270745.92   -130.72278    96.234883    103.42381    99.197928    4.2062116    159.79696    187.58773 
   24000    599.49848   -273763.06            0   -270712.61    203.20929    96.297211    103.44013    99.051136    4.2377022     166.4012    180.26797 
   25000    604.53346   -273810.04            0   -270733.97    48.779479    96.296713    103.28028    99.097086    4.3128978    173.21966    173.21967 
   26000    600.85863    -273789.1            0   -270731.73    293.85276    96.641599    103.24784    98.963085    5.2742457    180.12833    166.27231 
   27000    597.60111   -273815.37            0   -270774.58    59.618308    96.588491    103.24439    98.850798    5.3262216    187.04639    159.33581 
   28000    602.91514   -273799.73            0   -270731.91   -216.93332    96.375251    103.36534    98.945024     5.473244    193.99381    152.42371 
   29000    595.98972   -273779.58            0   -270746.99    330.45325    96.256199    103.48624    98.786188      4.42336    201.01118    145.55982 
   30000    600.22236   -273810.73            0    -270756.6    37.881076    96.437716    103.43657    98.923978     4.665935    207.53707    138.35804 
   31000    600.41452   -273788.28            0   -270733.18    291.30392    96.342938    103.38456    98.921549    4.4294961    214.61105     131.5358 
   32000    596.62053   -273816.64            0   -270780.84    29.198098    96.353742    103.09697    99.121435    4.7788238    221.39494    124.53465 
   33000    603.96474   -273830.57            0    -270757.4      333.863     96.39987    103.25138    98.917402    4.7419107     228.4039    117.66262 
   34000    601.96498   -273807.88            0   -270744.89   -34.211594    96.572091    103.26225    98.707963     5.115596    235.39022    110.77187 
   35000    602.61169   -273800.63            0   -270734.35    -56.08258    96.671283     103.2174    98.784257    4.7375788     242.3473    103.86313 
   36000    602.28983   -273839.09            0   -270774.44    136.26206    96.549657    103.59846    98.477775    5.3760259    248.86351    96.780252 
   37000    596.53634   -273827.92            0   -270792.55   -106.37587    96.465844    103.37838    98.618004    4.0961794    256.19462    90.014326 
   38000    603.56163   -273827.93            0   -270756.81    106.73126     96.66937    103.35907    98.556768    4.1735523    262.75833    82.976314 
   39000    605.69406   -273836.52            0   -270754.55   -160.70286    96.455152     103.2619    98.653592    4.6675406    269.84162    76.109174 
   40000    603.08534   -273811.69            0   -270742.99    210.85382    96.464636    103.36787    98.606902    4.6035628    276.88428    69.221069 
   41000    602.69569   -273833.76            0   -270767.05   -63.467745    96.470579    103.32818    98.610704    4.1879636     283.6413    62.262726 
   42000    598.85009   -273847.21            0   -270800.07    54.056698    96.395503    103.56712    98.502588     4.622338    290.17042    55.270557 
   43000    596.49079   -273847.46            0   -270812.32   -158.34305    96.294268    103.42804    98.655128    4.3547533    297.47688    48.426469 
   44000    597.69479   -273839.54            0   -270798.27    109.76603    96.344579    103.40262    98.525177    5.3158259    304.04313    41.460426 
   45000    598.43799   -273816.91            0   -270771.86   -182.95974    96.313842    103.56714    98.572268     4.686892    311.09982    34.566646 
   46000    598.90764   -273834.78            0   -270787.34    136.23665    96.341293    103.40555    98.662565     5.391242     318.1715    27.667087 
   47000    601.35255   -273812.49            0   -270752.61     65.27724    96.283434     103.3004    98.736115    4.3792794    325.06887    20.749077 
   48000    598.07363   -273860.08            0   -270816.88   -91.745142    96.190489    103.28709    98.705311      4.57563    331.90885    13.829535 
   49000    596.34637   -273842.33            0   -270807.92    20.042955    96.261366    103.37518    98.667415    4.2509976    338.86807    6.9156749 
   50000    598.25198   -273869.58            0   -270825.48   -121.73731    96.113141    103.24107    98.891954    4.2335302    345.56877            0 
Loop time of 345.569 on 160 procs for 50000 steps with 39366 atoms

Performance: 12.501 ns/day, 1.920 hours/ns, 144.689 timesteps/s
99.0% CPU use with 160 MPI tasks x 1 OpenMP threads

MPI task timing breakdown:
Section |  min time  |  avg time  |  max time  |%varavg| %total
---------------------------------------------------------------
Pair    | 70.951     | 76.424     | 81.845     |  26.6 | 22.12
Kspace  | 187.9      | 193.43     | 198.72     |  17.3 | 55.97
Neigh   | 3.4493     | 3.7269     | 4.0153     |   6.2 |  1.08
Comm    | 31.204     | 33.692     | 35.322     |  15.6 |  9.75
Output  | 0.0032759  | 0.0033177  | 0.0044503  |   0.2 |  0.00
Modify  | 26.714     | 28.399     | 35.924     |  29.7 |  8.22
Other   |            | 9.896      |            |       |  2.86

Nlocal:    246.037 ave 262 max 228 min
Histogram: 5 2 10 16 33 37 27 19 8 3
Nghost:    3836.94 ave 3898 max 3758 min
Histogram: 2 1 10 11 28 46 21 21 16 4
Neighs:    56613.9 ave 61693 max 51754 min
Histogram: 5 7 12 23 34 34 26 11 5 3

Total # of neighbors = 9058226
Ave neighs/atom = 230.103
Neighbor list builds = 1847
Dangerous builds = 0

# Stage 1: nvt_equilibriation
unfix           int
restart         0
fix             int all nvt temp ${T1} ${T1} $(100*dt)
fix             int all nvt temp 600 ${T1} $(100*dt)
fix             int all nvt temp 600 600 $(100*dt)
fix             int all nvt temp 600 600 0.10000000000000000555
run             50000
PPPM initialization ...
  using 12-bit tables for long-range coulomb (../kspace.cpp:323)
  G vector (1/distance) = 0.266776
  grid = 90 90 90
  stencil order = 5
  estimated absolute RMS force accuracy = 0.000140652
  estimated relative force accuracy = 9.76772e-06
  using double precision MKL FFT
  3d grid and FFT values/proc = 13050 4968
Per MPI rank memory allocation (min/avg/max) = 4.418 | 4.524 | 4.882 Mbytes
Step Temp E_pair E_mol TotEng Press Lx Ly Lz Fmax CPU CPULeft 
   50000    598.25198   -273869.63            0   -270825.53   -122.28295    96.113141    103.24107    98.891954    4.2333357            0            0 
   51000    601.24147   -273874.42            0   -270815.11   -229.39285    96.113141    103.24107    98.891954    4.1006334     7.044368    345.17403 
   52000    600.80656   -273853.53            0   -270796.43   -146.57463    96.113141    103.24107    98.891954    4.4016657    14.367283    344.81479 
   53000    599.28061   -273841.56            0   -270792.22   -198.43188    96.113141    103.24107    98.891954    4.6810946    21.132031     331.0685 
   54000    600.20035    -273853.9            0   -270799.88    -130.4746    96.113141    103.24107    98.891954    5.0275054    28.377716    326.34373 
   55000    605.05482   -273833.84            0   -270755.12    55.981353    96.113141    103.24107    98.891954    4.5549903    35.420617    318.78556 
   56000    602.12171   -273856.27            0   -270792.48   -11.027014    96.113141    103.24107    98.891954    4.0952271    42.368852    310.70491 
   57000    599.72226   -273870.57            0   -270818.99   -145.50294    96.113141    103.24107    98.891954    4.5340873    49.419619    303.57766 
   58000    601.78382   -273833.72            0   -270771.65    430.01771    96.113141    103.24107    98.891954    4.3606651    56.531917    296.79257 
   59000    594.78049   -273847.24            0    -270820.8   -132.56946    96.113141    103.24107    98.891954    4.1495355    63.220437    288.00422 
   60000    602.87886   -273852.88            0   -270785.24   -325.15669    96.113141    103.24107    98.891954    4.7879503    70.695951    282.78381 
   61000    597.54587   -273869.02            0   -270828.52   -416.92181    96.113141    103.24107    98.891954    4.6545519    77.371902    274.31856 
   62000    596.62808   -273845.77            0   -270809.94   -122.48372    96.113141    103.24107    98.891954    4.6135304      84.5073    267.60645 
   63000    602.35906   -273853.45            0   -270788.45    -165.5593    96.113141    103.24107    98.891954    4.5563127    91.603249    260.71694 
   64000    597.65888   -273822.45            0   -270781.36   -142.07266    96.113141    103.24107    98.891954     4.753358    98.571031    253.46837 
   65000    600.26021   -273892.75            0   -270838.43   -185.94188    96.113141    103.24107    98.891954      4.86645    105.47704    246.11309 
   66000    597.83713   -273845.21            0   -270803.22   -231.95682    96.113141    103.24107    98.891954    4.4462918    112.84114    239.78743 
   67000    596.33371   -273877.16            0   -270842.82   -184.36439    96.113141    103.24107    98.891954      4.85868    119.65231    232.26625 
   68000    602.01718   -273871.42            0   -270808.16    9.3669828    96.113141    103.24107    98.891954    4.7803207    126.72285    225.28507 
   69000    600.61467    -273829.7            0   -270773.57   -252.61736    96.113141    103.24107    98.891954    4.0441592    134.03363    218.68646 
   70000    602.14723   -273875.07            0   -270811.15    175.56853    96.113141    103.24107    98.891954    4.7611885    140.67186    211.00779 
   71000    602.67777      -273861            0   -270794.38   -193.56621    96.113141    103.24107    98.891954    5.0840396    147.74309    204.02617 
   72000    596.93086   -273871.47            0   -270834.09   -259.25723    96.113141    103.24107    98.891954    4.2148892    154.85715    197.09092 
   73000    605.37503   -273861.45            0   -270781.11    90.709544    96.113141    103.24107    98.891954    4.3824864    161.73339    189.86093 
   74000    599.40874   -273840.23            0   -270790.24   -36.962524    96.113141    103.24107    98.891954    4.5761728    168.79593    182.86226 
   75000    600.98168   -273871.56            0   -270813.57    -246.2498    96.113141    103.24107    98.891954     4.250038    176.02069    176.02069 
   76000    599.30067    -273846.2            0   -270796.76   -356.62628    96.113141    103.24107    98.891954    4.4159763     182.6956    168.64209 
   77000    597.25434   -273868.99            0   -270829.97   -511.70341    96.113141    103.24107    98.891954    4.7678762    190.12332     161.9569 
   78000    597.85143   -273870.68            0   -270828.61   -227.20764    96.113141    103.24107    98.891954    4.0968893    196.99377    154.78082 
   79000    602.12177   -273872.37            0   -270808.57     -145.291    96.113141    103.24107    98.891954    4.3752721     204.2188    147.88258 
   80000    596.99515   -273874.36            0   -270836.65   -217.46104    96.113141    103.24107    98.891954    4.4739149    211.29493    140.86329 
   81000    596.99266   -273870.85            0   -270833.15   -324.07928    96.113141    103.24107    98.891954    4.4705795    218.35717    133.83181 
   82000    599.63467   -273854.53            0    -270803.4   -59.744868    96.113141    103.24107    98.891954    4.4481663    225.04797    126.58948 
   83000    597.13256   -273868.22            0   -270829.81   -43.130741    96.113141    103.24107    98.891954    4.6309655    232.43742    119.74049 
   84000    603.18813   -273866.46            0   -270797.25   -80.514975    96.113141    103.24107    98.891954    4.5240635    239.19721    112.56339 
   85000    600.53696    -273853.9            0   -270798.18   -284.83228    96.113141    103.24107    98.891954    4.5203452    246.25184     105.5365 
   86000    599.83758    -273838.4            0   -270786.23   -164.16796    96.113141    103.24107    98.891954    4.4810635    253.63164    98.634526 
   87000    598.24346   -273846.52            0   -270802.47   -444.14097    96.113141    103.24107    98.891954    4.3641416    260.34715    91.473322 
   88000    595.50511   -273848.09            0   -270817.97   -483.84775    96.113141    103.24107    98.891954    5.3907428    267.32304    84.417802 
   89000    603.20408   -273875.99            0   -270806.69   -304.63173    96.113141    103.24107    98.891954    6.0132596    274.48295    77.418267 
   90000    601.79282   -273850.07            0   -270787.95    -69.73858    96.113141    103.24107    98.891954    5.2308068    281.41507    70.353767 
   91000    593.70466   -273868.91            0   -270847.95    -298.8409    96.113141    103.24107    98.891954    4.5411114    288.36582    63.299815 
   92000    602.81276   -273856.23            0   -270788.93   -198.90055    96.113141    103.24107    98.891954    6.3447326    295.59617    56.304032 
   93000    598.13393   -273879.76            0   -270836.26   -172.07935    96.113141    103.24107    98.891954    4.2645857    302.29114    49.210186 
   94000    600.78615   -273891.07            0   -270834.07   -331.69911    96.113141    103.24107    98.891954    4.8593998     309.5049    42.205213 
   95000     602.5846   -273884.84            0   -270818.69    -43.15784    96.113141    103.24107    98.891954    4.7294571    316.36093    35.151215 
   96000     599.0887    -273885.2            0   -270836.84   -147.87276    96.113141    103.24107    98.891954    4.4947838    323.38953    28.120829 
   97000    599.70051   -273851.46            0   -270799.98   -346.36468    96.113141    103.24107    98.891954    4.4014368    330.46358     21.09342 
   98000    596.38983   -273870.54            0   -270835.91    -707.9975    96.113141    103.24107    98.891954    4.3159852    337.53775    14.064073 
   99000    595.11213   -273875.73            0   -270847.61   -492.87212    96.113141    103.24107    98.891954    5.0348014    344.28397    7.0262036 
  100000     599.4866   -273869.51            0   -270819.12   -282.43014    96.113141    103.24107    98.891954    4.1040058    351.72034            0 
Loop time of 351.72 on 160 procs for 50000 steps with 39366 atoms

Performance: 12.282 ns/day, 1.954 hours/ns, 142.158 timesteps/s
99.0% CPU use with 160 MPI tasks x 1 OpenMP threads

MPI task timing breakdown:
Section |  min time  |  avg time  |  max time  |%varavg| %total
---------------------------------------------------------------
Pair    | 70.568     | 77.378     | 87.821     |  37.1 | 22.00
Kspace  | 215.48     | 225.1      | 232.64     |  21.0 | 64.00
Neigh   | 3.4254     | 3.7421     | 4.1817     |   7.7 |  1.06
Comm    | 35.805     | 38.438     | 41.721     |  16.6 | 10.93
Output  | 0.003443   | 0.00347    | 0.0042298  |   0.1 |  0.00
Modify  | 4.9846     | 6.2776     | 7.4843     |  22.4 |  1.78
Other   |            | 0.7845     |            |       |  0.22

Nlocal:    246.037 ave 265 max 226 min
Histogram: 1 6 11 21 41 27 30 15 5 3
Nghost:    3836.78 ave 3917 max 3772 min
Histogram: 5 15 25 28 18 31 18 11 5 4
Neighs:    56616.1 ave 62094 max 49587 min
Histogram: 1 0 13 14 28 39 30 18 15 2

Total # of neighbors = 9058578
Ave neighs/atom = 230.112
Neighbor list builds = 1820
Dangerous builds = 0

# Stage 2: main_nvt_simulation
unfix           int
compute         lithiummsd lithium msd com yes
compute         scandiummsd scandium msd com yes
compute         chloridemsd chloride msd com yes
fix             lithiummsdt lithium ave/time 1 1 1000 c_lithiummsd[4] file monoclinic_9x9x9_600_li.txt
fix             scandiummymsdt scandium ave/time 1 1 1000 c_scandiummsd[4] file monoclinic_9x9x9_600_sc.txt
fix             chloridemymsdt chloride ave/time 1 1 1000 c_chloridemsd[4] file monoclinic_9x9x9_600_cl.txt
dump            atom_info all custom 1000 monoclinic_9x9x9_600.lammpstrj element x y z q id type vx vy vz
dump_modify     atom_info append yes
dump_modify     atom_info sort id
dump_modify     atom_info element Li Sc Cl
restart         0
fix             int all nvt temp ${T1} ${T1} $(100*dt)
fix             int all nvt temp 600 ${T1} $(100*dt)
fix             int all nvt temp 600 600 $(100*dt)
fix             int all nvt temp 600 600 0.10000000000000000555
run             16000000
PPPM initialization ...
  using 12-bit tables for long-range coulomb (../kspace.cpp:323)
  G vector (1/distance) = 0.266776
  grid = 90 90 90
  stencil order = 5
  estimated absolute RMS force accuracy = 0.000140652
  estimated relative force accuracy = 9.76772e-06
  using double precision MKL FFT
  3d grid and FFT values/proc = 13050 4968
Per MPI rank memory allocation (min/avg/max) = 6.853 | 6.967 | 7.344 Mbytes
Step Temp E_pair E_mol TotEng Press Lx Ly Lz Fmax CPU CPULeft 
  100000     599.4866   -273869.51            0   -270819.12   -282.43014    96.113141    103.24107    98.891954    4.1040058            0            0 
  101000    599.36685   -273899.79            0   -270850.02   -346.15922    96.113141    103.24107    98.891954    4.2928297    6.7844951    108545.15 
  102000    599.74422   -273887.21            0   -270835.52   -4.4276648    96.113141    103.24107    98.891954    4.4014456    13.858002    110850.17 
  103000    602.89982   -273891.81            0   -270824.06   -227.06327    96.113141    103.24107    98.891954    5.1919595    21.060006    112298.98 
  104000    601.70657   -273880.41            0   -270818.73   -209.55178    96.113141    103.24107    98.891954    4.4377497    27.908749    111607.09 
  105000    600.61714   -273868.92            0   -270812.78   -165.29532    96.113141    103.24107    98.891954    4.3903406    34.702261    111012.54 
  106000     598.6801   -273889.56            0   -270843.29   -574.70931    96.113141    103.24107    98.891954    4.9320286    42.015235    111998.61 
  107000    601.02244    -273869.5            0    -270811.3   -326.03132    96.113141    103.24107    98.891954    4.7226931     48.82212     111544.6 
  108000    602.44506   -273884.11            0   -270818.68   -376.21323    96.113141    103.24107    98.891954    5.2343567    55.858061    111660.27 
  109000    599.04512   -273882.52            0   -270834.39   -536.63832    96.113141    103.24107    98.891954    4.6150962    63.078183    112075.92 
  110000     602.1698   -273862.36            0   -270798.33   -165.64891    96.113141    103.24107    98.891954    4.5378173    69.720119    111482.47 
  111000    600.46706   -273866.62            0   -270811.25   -96.847686    96.113141    103.24107    98.891954    4.6569122    76.830608    111676.78 
  112000     603.3141   -273850.44            0   -270780.58   -506.81944    96.113141    103.24107    98.891954    4.9708718     83.86431    111735.22 
  113000    601.29547   -273886.15            0   -270826.56   -460.13438    96.113141    103.24107    98.891954    4.1660687    90.915941    111805.63 
  114000    602.29147   -273838.61            0   -270773.96   -19.954736    96.113141    103.24107    98.891954    5.2175807    97.921232    111812.06 
  115000    600.00409   -273849.75            0   -270796.74    121.33003    96.113141    103.24107    98.891954    4.3407056    105.04686    111944.93 
  116000    598.01096   -273860.72            0   -270817.84   -215.17155    96.113141    103.24107    98.891954    5.3856303    111.72107    111609.35 
  117000    595.84923   -273838.96            0   -270807.08   -357.41589    96.113141    103.24107    98.891954    3.7959343    119.11855    111992.46 
  118000     600.0242    -273863.1            0   -270809.98   -101.62663    96.113141    103.24107    98.891954    4.2393227    125.95087    111830.38 
  119000    597.08489   -273874.81            0   -270836.65   -383.22725    96.113141    103.24107    98.891954    4.1673233    133.03165    111893.62 
  120000    596.98093   -273854.58            0   -270816.94   -357.01261    96.113141    103.24107    98.891954      4.80572     140.1718    111997.27 
  121000    600.00492   -273866.67            0   -270813.65   -38.342075    96.113141    103.24107    98.891954    4.5398088    146.99291    111847.61 
  122000    597.96193   -273873.98            0   -270831.35   -170.39416    96.113141    103.24107    98.891954    4.4633963     153.8416    111730.96 
  123000     599.8617   -273877.24            0   -270824.95    -269.7127    96.113141    103.24107    98.891954    4.9929377    161.19719    111975.98 
  124000    601.54165   -273840.93            0   -270780.09   -508.41996    96.113141    103.24107    98.891954     4.768849    168.03717    111856.74 
  125000    599.59365   -273865.81            0   -270814.88   -481.06954    96.113141    103.24107    98.891954    4.9980253    175.08177    111877.25 
  126000    601.67575   -273898.76            0   -270837.23    -315.6536    96.113141    103.24107    98.891954    4.8684128    182.40183    112064.88 
  127000    601.80226   -273893.86            0   -270831.69   -484.90185    96.113141    103.24107    98.891954    5.3048338    188.99247    111806.55 
  128000    600.56655   -273857.99            0   -270802.11   -340.42887    96.113141    103.24107    98.891954      3.83976     196.0714    111844.73 
  129000    597.07899   -273856.85            0   -270818.72   -308.49591    96.113141    103.24107    98.891954    4.6712885    203.13303    111870.26 
  130000     598.4967   -273871.57            0   -270826.23   -312.57937    96.113141    103.24107    98.891954    4.4286555    210.09849    111842.43 
  131000     597.8442   -273888.46            0   -270846.44   -579.88635    96.113141    103.24107    98.891954    4.3785088    217.12963    111849.78 
  132000    600.42747   -273856.93            0   -270801.76   -325.56921    96.113141    103.24107    98.891954    4.2089199    224.32518    111938.27 
  133000    600.71196   -273865.77            0   -270809.15   -306.52857    96.113141    103.24107    98.891954    5.0200616    231.18284    111857.47 
  134000    600.99708   -273887.84            0   -270829.77   -536.53901    96.113141    103.24107    98.891954    4.8227079    238.67698     112079.9 
  135000    599.51617   -273874.32            0   -270823.79   -270.81249    96.113141    103.24107    98.891954    4.9344369    245.36514    111921.55 
  136000    602.14979   -273863.78            0   -270799.85   -454.03664    96.113141    103.24107    98.891954    4.7234562    252.43301    111940.02 
  137000    597.19994      -273876            0   -270837.26   -546.35123    96.113141    103.24107    98.891954    4.9110788    259.56019    111982.68 
  138000    598.33634   -273889.02            0   -270844.49   -468.91113    96.113141    103.24107    98.891954    5.0576409    266.45548    111925.32 
  139000    600.54701   -273879.76            0   -270823.98   -206.40132    96.113141    103.24107    98.891954    5.1016883    273.20205    111809.69 
  140000    602.09238   -273871.61            0   -270807.97   -505.33481    96.113141    103.24107    98.891954    4.2103585    280.65014     111979.4 
  141000    600.28153   -273888.61            0   -270834.18   -296.89163    96.113141    103.24107    98.891954     4.581972    287.47482    111897.82 
  142000     599.5961   -273864.48            0   -270813.54   -322.75553    96.113141    103.24107    98.891954    4.2418375    294.54555    111913.28 
  143000    598.49543   -273868.74            0    -270823.4   -370.07932    96.113141    103.24107    98.891954    4.7570433    301.90883    112036.26 
  144000    595.65014   -273862.05            0   -270831.19    -588.2051    96.113141    103.24107    98.891954    4.6438086    308.57227    111899.52 
  145000    600.70751   -273869.27            0   -270812.68   -436.51994    96.113141    103.24107    98.891954    4.7279742    315.61709    111903.79 
  146000    599.38103   -273840.89            0   -270791.04   -257.68352    96.113141    103.24107    98.891954    4.2809242    322.72237    111928.54 
  147000    602.55798   -273885.78            0   -270819.77   -210.37451    96.113141    103.24107    98.891954    4.5580045    329.68033    111901.92 
  148000    597.39667   -273896.01            0   -270856.26   -428.43248    96.113141    103.24107    98.891954    4.7953193    336.64599    111878.68 
  149000    600.23575   -273892.62            0   -270838.42   -450.28958    96.113141    103.24107    98.891954    4.2671972     343.9104    111953.36 
  150000    602.49185    -273847.1            0   -270781.42   -333.70617    96.113141    103.24107    98.891954    4.6321534    350.64367    111855.33 
  151000    600.07048   -273886.69            0   -270833.33   -413.55045    96.113141    103.24107    98.891954    4.5658782     358.0156     111960.6 
  152000    598.10777   -273868.12            0   -270824.75   -234.36583    96.113141    103.24107    98.891954    5.2273524    364.85763    111899.03 
  153000    601.75488   -273879.36            0   -270817.44   -206.28001    96.113141    103.24107    98.891954    4.2204373    371.90812    111902.24 
  154000    602.46622   -273899.64            0    -270834.1   -190.24475    96.113141    103.24107    98.891954    3.9418716    378.95726    111904.68 
  155000    599.34966   -273860.37            0   -270810.68   -443.90525    96.113141    103.24107    98.891954    4.3544768    385.97353    111897.24 
  156000    602.87161    -273854.8            0    -270787.2   -376.45383    96.113141    103.24107    98.891954     4.493738    392.83809    111846.62 
  157000    601.09685   -273895.05            0   -270836.47   -435.96615    96.113141    103.24107    98.891954    4.5889596    400.24736    111949.89 
  158000    604.02356   -273876.89            0   -270803.43   -626.03807    96.113141    103.24107    98.891954    4.7862515    406.94912    111854.88 
  159000    595.00511   -273880.32            0   -270852.74   -727.80776    96.113141    103.24107    98.891954    3.9590224    414.04116    111868.31 
  160000    603.13137   -273858.92            0   -270789.99   -431.65365    96.113141    103.24107    98.891954    4.7662172    421.12052    111877.69 
  161000    596.95595   -273872.35            0   -270834.84   -159.74151    96.113141    103.24107    98.891954    4.6334914     427.8632    111798.55 
  162000    603.37305   -273879.41            0   -270809.25   -567.62695    96.113141    103.24107    98.891954    5.0950679    434.74982    111758.75 
  163000    595.18261   -273864.29            0   -270835.81   -571.60776    96.113141    103.24107    98.891954    4.8749427     442.0267    111818.72 
  164000    597.29653   -273882.68            0   -270843.44   -407.60997    96.113141    103.24107    98.891954    4.0876345    448.91839    111780.68 
  165000    595.47208   -273902.46            0   -270872.51   -263.20198    96.113141    103.24107    98.891954     4.526712    455.94894    111777.64 
  166000    601.11893   -273865.93            0   -270807.24   -752.78856    96.113141    103.24107    98.891954    4.0137858    463.22244    111833.13 
  167000    598.71086   -273881.01            0   -270834.58   -727.98293    96.113141    103.24107    98.891954    4.8196085    469.87977    111740.21 
  168000    596.31676   -273882.65            0    -270848.4   -161.06222    96.113141    103.24107    98.891954    4.4310028    477.17079    111798.31 
  169000    601.01575   -273848.16            0      -270790   -518.56682    96.113141    103.24107    98.891954    5.3380427     484.1043    111771.97 
  170000    595.13604    -273867.3            0   -270839.05   -597.32555    96.113141    103.24107    98.891954    4.0329641    491.07099    111753.73 
  171000    597.23394   -273887.15            0   -270848.23   -503.40544    96.113141    103.24107    98.891954      4.66388    498.10323    111750.51 
  172000    602.38528   -273895.23            0    -270830.1   -487.82007    96.113141    103.24107    98.891954    4.4829499    505.29429    111782.33 
  173000    603.40565   -273862.03            0   -270791.71   -325.88804    96.113141    103.24107    98.891954    4.2967163    512.01468    111710.38 
  174000    599.91784   -273857.21            0   -270804.63   -599.86227    96.113141    103.24107    98.891954    4.3287434    519.45725    111795.62 
  175000    600.82614   -273901.49            0    -270844.3   -772.60186    96.113141    103.24107    98.891954    4.1130593     526.2002    111729.84 
  176000    597.65843   -273876.79            0   -270835.71    -598.6335    96.113141    103.24107    98.891954    4.8805756    533.24907    111729.71 
  177000    601.59682   -273862.33            0   -270801.21   -469.35077    96.113141    103.24107    98.891954    5.1361219    540.33008    111736.05 
  178000    599.33749   -273845.66            0   -270796.04    -666.0916    96.113141    103.24107    98.891954    5.2254905    547.25707     111710.6 
  179000    600.42724   -273887.89            0   -270832.72   -712.22955    96.113141    103.24107    98.891954    4.0580963    553.97957    111644.42 
  180000    603.68143   -273863.84            0   -270792.11   -594.47573    96.113141    103.24107    98.891954    4.4042631    561.30308    111699.31 
  181000    601.22722   -273889.78            0   -270830.54   -358.43311    96.113141    103.24107    98.891954    4.6116328    568.19601    111668.05 
  182000    603.05201   -273871.49            0   -270802.97   -223.30074    96.113141    103.24107    98.891954     4.581621    575.22685    111664.16 
  183000    599.22694   -273888.38            0   -270839.32   -484.22207    96.113141    103.24107    98.891954    4.6427821    582.41939     111691.2 
  184000    597.28501   -273887.85            0   -270848.67   -300.22938    96.113141    103.24107    98.891954    4.2654775     589.1653     111632.8 
  185000    600.51514    -273862.5            0   -270806.88   -298.97028    96.113141    103.24107    98.891954    4.4705735    596.26258     111641.4 
  186000    598.08824   -273884.78            0   -270841.52   -570.51283    96.113141    103.24107    98.891954    4.6749659    603.28316    111635.45 
  187000    598.73473   -273861.39            0   -270814.83   -521.62044    96.113141    103.24107    98.891954    4.7035023    610.26999    111623.29 
  188000    599.52973   -273867.82            0   -270817.22   -283.85985    96.113141    103.24107    98.891954    4.2732461    617.21541    111603.77 
  189000    596.86815   -273871.41            0   -270834.35   -491.81484    96.113141    103.24107    98.891954    5.8540541    624.27052    111604.14 
  190000    605.28511   -273896.48            0    -270816.6   -460.92491    96.113141    103.24107    98.891954    4.3354832    630.90292    111529.62 
  191000    599.67451   -273876.91            0   -270825.57   -566.52512    96.113141    103.24107    98.891954    4.9065896    638.15052    111564.14 
  192000     602.8692   -273870.77            0   -270803.18   -205.30864    96.113141    103.24107    98.891954    4.6862916     645.0498    111537.52 
  193000    600.84454   -273870.82            0   -270813.52    -540.5026    96.113141    103.24107    98.891954    4.1154624     652.1842    111551.55 
  194000    602.53545   -273863.58            0   -270797.68   -441.82219    96.113141    103.24107    98.891954    4.7606596    659.23123    111550.34 
  195000    599.13813    -273883.6            0   -270834.99   -618.16236    96.113141    103.24107    98.891954    4.4055467     666.1722    111531.25 
  196000    601.48155   -273860.96            0   -270800.43   -520.32048    96.113141    103.24107    98.891954    5.5210581     673.0148    111496.12 
  197000    602.00188   -273894.86            0   -270831.67   -504.74514    96.113141    103.24107    98.891954    4.1428328    680.44389    111557.72 
  198000    598.98036   -273859.37            0   -270811.56   -631.67677    96.113141    103.24107    98.891954    4.5818148    687.14662    111500.06 
  199000    599.00879   -273878.04            0   -270830.09   -477.19499    96.113141    103.24107    98.891954    4.1683598     694.2133    111501.88 
  200000    594.94262   -273870.49            0   -270843.23   -581.95313    96.113141    103.24107    98.891954     4.537921    701.46195    111532.45 
  201000    598.13139   -273853.86            0   -270810.37    -636.2659    96.113141    103.24107    98.891954    4.1841384    708.20399    111482.53 
  202000    602.60606   -273884.44            0   -270818.19   -692.17329    96.113141    103.24107    98.891954    4.1351124    715.26972     111483.9 
  203000    597.77862   -273894.25            0   -270852.55   -673.41385    96.113141    103.24107    98.891954     5.136065    722.44222    111501.59 
  204000    604.86802   -273873.29            0   -270795.53   -479.11766    96.113141    103.24107    98.891954    4.3582642    729.33255    111475.68 
  205000    600.17739   -273887.13            0   -270833.23   -419.62435    96.113141    103.24107    98.891954    4.2121231    736.39713     111476.5 
  206000    603.01794   -273866.69            0   -270798.34   -472.62846    96.113141    103.24107    98.891954     4.319084    743.63968    111503.86 
  207000    599.60151    -273895.9            0   -270844.93   -729.38731    96.113141    103.24107    98.891954    5.0390275    750.34026    111450.07 
  208000    603.74616   -273888.44            0   -270816.38   -344.08606    96.113141    103.24107    98.891954    4.6603522    757.57919    111476.38 
  209000    599.49954   -273894.43            0   -270843.98   -497.61617    96.113141    103.24107    98.891954    4.9412498    764.54985    111462.95 
  210000    600.71704   -273908.61            0   -270851.97     -542.722    96.113141    103.24107    98.891954    4.9106263    771.58284    111458.65 
  211000    600.89414   -273870.94            0   -270813.39   -594.39816    96.113141    103.24107    98.891954    4.8949779    778.63175    111456.58 
  212000    595.07552   -273892.14            0   -270864.21   -653.35218    96.113141    103.24107    98.891954    4.1865433     785.5945    111442.19 
  213000    606.48692   -273874.39            0   -270788.39   -428.73603    96.113141    103.24107    98.891954    4.8504324    792.30314    111392.21 
  214000    600.46945   -273892.58            0   -270837.19   -430.34347    96.113141    103.24107    98.891954    4.7113321    799.72157     111441.9 
  215000    600.76184   -273896.54            0   -270839.67   -661.15781    96.113141    103.24107    98.891954    4.1827932    806.39513    111387.71 
  216000    601.79025   -273893.49            0   -270831.38   -298.98429    96.113141    103.24107    98.891954    4.9691983    813.37063    111375.68 
  217000    600.52229   -273875.43            0   -270819.78    -953.1942    96.113141    103.24107    98.891954    4.7642106    820.49636    111384.13 
  218000    596.11734   -273895.07            0   -270861.83   -802.99831    96.113141    103.24107    98.891954    5.0970188    827.55605    111383.43 
  219000    599.24103   -273860.86            0   -270811.73   -434.09749    96.113141    103.24107    98.891954    4.0571453    834.43964    111359.13 
  220000     598.4198   -273890.53            0   -270845.57   -815.60869    96.113141    103.24107    98.891954     5.800123    841.66829    111380.77 
  221000    599.44431   -273884.46            0    -270834.3   -749.21744    96.113141    103.24107    98.891954    4.2346894    848.60808    111364.03 
  222000    598.13016   -273916.83            0   -270873.35   -854.65788    96.113141    103.24107    98.891954    4.6902755    855.60343    111354.68 
  223000    601.18296   -273907.31            0    -270848.3   -780.86746    96.113141    103.24107    98.891954    5.0165349    862.84762    111377.49 
  224000    599.42992   -273885.48            0   -270835.38   -838.56085    96.113141    103.24107    98.891954    5.3809243    869.52781    111327.61 
  225000    598.72682    -273870.8            0   -270824.28    -720.2932    96.113141    103.24107    98.891954    4.3116978    876.75283    111347.61 
  226000    602.82388    -273889.1            0   -270821.73   -493.84826    96.113141    103.24107    98.891954    4.2292153    883.76141    111339.91 
  227000    600.74957   -273881.62            0   -270824.81   -596.62234    96.113141    103.24107    98.891954    4.1781398    890.89576    111347.94 
  228000     596.0799   -273876.82            0   -270843.77   -625.59078    96.113141    103.24107    98.891954    4.7397867    897.89417    111338.88 
  229000    600.83925   -273865.25            0   -270807.98   -516.93946    96.113141    103.24107    98.891954     4.890259    905.01508    111344.92 
  230000     599.2522   -273897.58            0   -270848.38   -644.56527    96.113141    103.24107    98.891954    4.8568395     911.7153     111299.4 
  231000    602.42327   -273876.95            0   -270811.62   -585.99556    96.113141    103.24107    98.891954     4.286014    919.19016    111348.31 
  232000    597.97758   -273861.71            0   -270819.01   -893.63141    96.113141    103.24107    98.891954    4.3887703    925.86179    111299.81 
  233000    600.34438    -273887.7            0   -270832.95   -540.33675    96.113141    103.24107    98.891954    4.8482642    932.96051    111302.89 
  234000    597.90444   -273865.47            0   -270823.13   -529.89356    96.113141    103.24107    98.891954    4.4372642    940.10541    111311.29 
  235000    598.81508    -273879.2            0   -270832.24     -913.209    96.113141    103.24107    98.891954    5.2890388    946.94126    111283.13 
  236000    598.89577    -273885.1            0   -270837.72   -372.08943    96.113141    103.24107    98.891954    4.5992667    953.77748    111255.34 
  237000    601.02205   -273904.54            0   -270846.34   -727.63694    96.113141    103.24107    98.891954    5.3931671    961.12467    111287.01 
  238000    601.17649   -273895.99            0   -270837.01   -568.86618    96.113141    103.24107    98.891954    4.9735309    968.02606    111266.88 
  239000    595.05393   -273883.93            0    -270856.1   -432.37615    96.113141    103.24107    98.891954    5.0028015    974.96401    111251.11 
  240000     601.2864   -273876.84            0    -270817.3   -292.57203    96.113141    103.24107    98.891954    4.7477048    982.26334     111276.4 
  241000    601.55639   -273905.57            0   -270844.66   -648.04336    96.113141    103.24107    98.891954    4.3990725    988.92041       111229 
  242000    600.78302   -273884.29            0   -270827.31    -605.4471    96.113141    103.24107    98.891954    4.2970066    995.95803    111224.66 
  243000    602.91442   -273861.36            0   -270793.53   -612.08799    96.113141    103.24107    98.891954    4.7085178    1002.9334    111213.39 
  244000    596.45066   -273869.39            0   -270834.45   -612.12251    96.113141    103.24107    98.891954    4.5059446    1009.8256    111193.02 
  245000    597.29526   -273905.21            0   -270865.97   -572.06218    96.113141    103.24107    98.891954    4.5399442    1016.7816     111179.8 
  246000    596.65003   -273863.55            0    -270827.6   -732.58341    96.113141    103.24107    98.891954    4.2538813    1024.0187    111197.21 
  247000    595.57314   -273897.69            0   -270867.22   -447.32416    96.113141    103.24107    98.891954    4.5067047    1030.7189    111156.38 
  248000    598.99947    -273893.7            0   -270845.79   -525.98211    96.113141    103.24107    98.891954    4.0356082    1037.9986    111178.06 
  249000    600.03356   -273886.48            0   -270833.31   -810.78308    96.113141    103.24107    98.891954    4.0231383    1044.8165    111150.24 
  250000     603.2303   -273900.07            0   -270830.63   -375.86349    96.113141    103.24107    98.891954    4.1480097    1051.9008    111150.85 
  251000    603.30692   -273892.14            0   -270822.31   -587.62333    96.113141    103.24107    98.891954    4.4803992    1058.8588     111138.1 
  252000    598.77286   -273911.19            0   -270864.43   -584.42698    96.113141    103.24107    98.891954     4.493127    1065.9285    111137.07 
  253000     601.1176   -273874.71            0   -270816.03    -508.8377    96.113141    103.24107    98.891954    4.0825385      1072.64    111098.86 
  254000    597.76722   -273902.01            0   -270860.37    -577.3837    96.113141    103.24107    98.891954    4.5887755    1080.0217    111130.03 
  255000    599.22683   -273890.69            0   -270841.63   -456.60035    96.113141    103.24107    98.891954    4.4557459    1086.7557    111094.48 
  256000    596.90466   -273898.78            0   -270861.54   -421.74961    96.113141    103.24107    98.891954     4.861393    1093.7774    111088.52 
  257000    601.91843   -273856.76            0      -270794   -568.73075    96.113141    103.24107    98.891954    4.4213047    1100.9644    111099.23 
  258000    597.86666   -273884.65            0   -270842.51   -323.62043    96.113141    103.24107    98.891954    4.1463256    1107.7796    111072.44 
  259000    596.23652   -273907.39            0   -270873.55   -166.93121    96.113141    103.24107    98.891954    4.1446336    1114.5687    111043.29 
  260000    600.03572   -273880.54            0   -270827.36   -461.68067    96.113141    103.24107    98.891954    5.0678556    1121.8452    111062.68 
  261000    601.77189   -273885.07            0   -270823.06   -404.95201    96.113141    103.24107    98.891954    4.1883969    1128.6911    111039.37 
  262000      597.307   -273875.56            0   -270836.27   -646.51008    96.113141    103.24107    98.891954    4.9043911    1135.7361    111035.73 
  263000    603.27971   -273872.79            0   -270803.11   -378.03633    96.113141    103.24107    98.891954     4.449417    1142.9818    111051.55 
  264000    601.43132   -273875.61            0   -270815.33   -619.08749    96.113141    103.24107    98.891954    4.4095274    1149.6901     111015.2 
  265000    606.12966   -273862.88            0    -270778.7   -425.46348    96.113141    103.24107    98.891954    5.3402847     1156.829    111020.53 
  266000     598.1376   -273894.14            0   -270850.63   -811.29032    96.113141    103.24107    98.891954    4.7083674    1163.9527    111024.26 
  267000    604.34111   -273899.36            0   -270824.28   -508.60832    96.113141    103.24107    98.891954    4.3973508    1170.9262    111013.62 
  268000    599.64632   -273886.16            0   -270834.96   -554.21641    96.113141    103.24107    98.891954    4.2028085    1178.0117    111013.58 
  269000    600.55822   -273891.07            0   -270835.23    -673.8241    96.113141    103.24107    98.891954    4.3565559    1185.0847    111012.29 
  270000    604.43817   -273889.62            0   -270814.05   -791.02767    96.113141    103.24107    98.891954    5.0458772    1191.8103    110978.57 
  271000    603.60301   -273909.57            0   -270838.25   -491.27443    96.113141    103.24107    98.891954    4.1602683    1199.2106    111007.63 
  272000    601.87452    -273884.2            0   -270821.66   -470.83415    96.113141    103.24107    98.891954    4.2011203    1205.9525    110975.68 
  273000    600.67853   -273898.44            0      -270842   -565.53979    96.113141    103.24107    98.891954    4.3255222    1212.9632     110968.6 
  274000    595.48532   -273904.63            0   -270874.61   -556.45606    96.113141    103.24107    98.891954    4.4617246     1220.073    110970.55 
  275000    598.49891   -273866.76            0    -270821.4   -341.53992    96.113141    103.24107    98.891954    4.3679679    1227.0534    110960.69 
  276000    602.17964   -273900.56            0   -270836.48    207.55437    96.113141    103.24107    98.891954    5.1404822    1233.9315    110941.66 
  277000    602.62299   -273888.38            0   -270822.04   -384.24546    96.113141    103.24107    98.891954    4.1920017    1241.3235    110968.71 
  278000    602.63581   -273882.98            0   -270816.57   -446.49229    96.113141    103.24107    98.891954    4.1919486    1248.0048     110932.2 
  279000    601.71914   -273878.78            0   -270817.04   -590.28729    96.113141    103.24107    98.891954    4.0945936    1255.1094    110933.44 
  280000    603.99694   -273880.84            0   -270807.51   -335.76524    96.113141    103.24107    98.891954    4.4210181    1262.3826     110949.4 
  281000    600.01559   -273891.74            0   -270838.66   -388.91366    96.113141    103.24107    98.891954    4.4109262    1269.1582    110921.62 
  282000    600.56294    -273891.5            0   -270835.64   -171.08254    96.113141    103.24107    98.891954    4.0670433    1276.2314    110919.94 
  283000    601.92008   -273877.15            0   -270814.38   -605.51695    96.113141    103.24107    98.891954    4.3964863    1283.4017    110926.58 
  284000    595.79806   -273885.27            0   -270853.66   -521.73202    96.113141    103.24107    98.891954    4.3918652     1290.336     110912.8 
  285000    602.25992   -273880.45            0   -270815.96   -210.18029    96.113141    103.24107    98.891954    4.8727934    1297.3056     110902.1 
  286000     596.6178   -273874.49            0    -270838.7   -613.90403    96.113141    103.24107    98.891954    4.6616535    1304.4933    110909.98 
  287000    597.95787   -273861.07            0   -270818.47   -812.60315    96.113141    103.24107    98.891954    4.1577826    1311.2115    110878.01 
  288000    598.51322   -273867.91            0   -270822.48   -843.46026    96.113141    103.24107    98.891954    4.8872257    1318.6194     110904.3 
  289000    600.24453   -273868.65            0   -270814.41   -509.82668    96.113141    103.24107    98.891954    4.4438295    1325.3687    110875.16 
  290000    595.41614   -273855.89            0   -270826.22   -457.04184    96.113141    103.24107    98.891954     4.390501     1332.433    110872.45 
  291000    600.53755    -273896.8            0   -270841.07   -660.08059    96.113141    103.24107    98.891954    4.4901743    1339.4552    110866.22 
  292000    601.96663   -273875.62            0   -270812.61   -399.78945    96.113141    103.24107    98.891954    4.5226599    1346.4864    110860.71 
  293000     602.7683   -273859.67            0   -270792.59   -684.74377    96.113141    103.24107    98.891954    4.6992199    1353.2814    110835.85 
  294000    600.66842    -273860.9            0   -270804.51   -834.06134    96.113141    103.24107    98.891954    5.5093179    1360.6118     110854.8 
  295000    602.33182   -273864.41            0   -270799.55   -500.64328    96.113141    103.24107    98.891954    5.2633594    1367.4152    110830.76 
  296000    600.90851    -273883.2            0   -270825.58   -586.30734    96.113141    103.24107    98.891954    3.8520163    1374.4426    110824.95 
  297000     603.8538   -273857.69            0   -270785.08   -652.25889    96.113141    103.24107    98.891954    4.4197352    1381.6732    110835.44 
  298000    598.31112   -273875.42            0   -270831.02   -382.09514    96.113141    103.24107    98.891954    6.0230152    1388.5021    110813.69 
  299000    597.23378   -273891.58            0   -270852.66   -438.43389    96.113141    103.24107    98.891954    4.1878986    1395.5877    110812.47 
  300000    603.34958   -273872.31            0   -270802.27   -345.12792    96.113141    103.24107    98.891954    4.0159853    1402.6919    110812.66 
  301000    600.21497   -273902.58            0   -270848.49   -336.09876    96.113141    103.24107    98.891954    4.5504133    1409.5751    110795.41 
  302000    605.23819   -273892.03            0   -270812.38   -341.22392    96.113141    103.24107    98.891954    4.5075554     1416.656    110793.72 
  303000     600.8485   -273856.65            0   -270799.34   -515.94846    96.113141    103.24107    98.891954    4.6326226     1423.853    110801.01 
  304000    599.18666   -273893.08            0   -270844.23    -527.8786    96.113141    103.24107    98.891954      4.52811     1430.738    110784.01 
  305000     603.1563   -273888.14            0   -270819.09   -428.56365    96.113141    103.24107    98.891954    4.8826629    1438.1359    110806.62 
  306000    599.64687   -273884.96            0   -270833.76   -703.45312    96.113141    103.24107    98.891954     3.969753    1444.8844    110779.15 
  307000    600.28102   -273879.52            0    -270825.1   -729.87547    96.113141    103.24107    98.891954     4.549196    1451.9677    110777.42 
  308000     598.2343   -273880.01            0      -270836   -433.41673    96.113141    103.24107    98.891954    4.1943956    1459.0504     110775.6 
  309000    601.03305   -273869.72            0   -270811.47   -471.80039    96.113141    103.24107    98.891954    4.3411099    1465.9654    110761.05 
  310000    598.40623   -273880.39            0    -270835.5   -682.83488    96.113141    103.24107    98.891954    4.2491734    1472.7172    110734.31 
  311000    597.97548   -273887.66            0   -270844.96    -962.7695    96.113141    103.24107    98.891954    4.6641837    1480.2677    110767.52 
  312000    602.76367   -273885.98            0   -270818.92   -383.01066    96.113141    103.24107    98.891954    4.2291252    1487.0369    110742.17 
  313000    597.36406   -273885.22            0   -270845.64   -424.87603    96.113141    103.24107    98.891954    4.1410322    1494.1355     110741.4 
  314000    595.09226   -273844.66            0   -270816.63   -742.05445    96.113141    103.24107    98.891954     4.446411    1501.3356    110748.06 
  315000    599.99497   -273896.21            0   -270843.24    -707.0712    96.113141    103.24107    98.891954     4.076541    1508.1483    110726.14 
  316000    597.46745      -273914            0   -270873.89    -480.0289    96.113141    103.24107    98.891954    4.7491063     1515.102    110714.68 
  317000    602.13862   -273893.87            0      -270830   -336.09884    96.113141    103.24107    98.891954    4.5247506    1522.2817    110719.69 
  318000    595.77382   -273893.72            0   -270862.23   -332.15201    96.113141    103.24107    98.891954    4.6095531    1529.1689    110703.41 
  319000     600.4061   -273898.73            0   -270843.67   -627.68079    96.113141    103.24107    98.891954    4.1314899    1536.1845    110696.48 
  320000    605.10463   -273880.98            0   -270802.01   -623.44164    96.113141    103.24107    98.891954    4.1676161    1543.5373    110713.72 
  321000    600.43006   -273860.51            0   -270805.32   -540.51797    96.113141    103.24107    98.891954    3.9100989     1550.272    110686.62 
  322000    600.77638   -273892.03            0   -270835.09   -763.94456    96.113141    103.24107    98.891954    4.4665136    1557.6401    110704.71 
  323000    600.25978   -273885.21            0   -270830.89   -497.78326    96.113141    103.24107    98.891954    4.3923306    1564.4947    110686.24 
  324000    604.14581    -273882.8            0   -270808.71   -598.83964    96.113141    103.24107    98.891954    4.3447626     1571.618    110686.81 
  325000    596.44575   -273885.89            0   -270850.98   -657.40706    96.113141    103.24107    98.891954    3.9610444    1578.6082    110677.98 
  326000    601.16959   -273898.67            0   -270839.73   -709.19817    96.113141    103.24107    98.891954    4.3785462    1585.6463     110672.5 
  327000    602.44757   -273899.48            0   -270834.03   -394.55275    96.113141    103.24107    98.891954    4.3176456    1592.3551    110644.13 
  328000    602.22684    -273908.2            0   -270843.88   -497.17307    96.113141    103.24107    98.891954    4.5877803    1599.8458    110670.03 
  329000     601.9217   -273881.18            0    -270818.4   -619.49182    96.113141    103.24107    98.891954    4.2507887    1606.5546     110641.8 
  330000    601.17886   -273914.42            0   -270855.42   -487.90496    96.113141    103.24107    98.891954    4.3194836    1613.5805     110635.5 
  331000    599.63813   -273878.05            0    -270826.9   -469.54755    96.113141    103.24107    98.891954     4.882553    1620.6662    110633.27 
  332000     600.5712   -273864.29            0   -270808.39   -320.57173    96.113141    103.24107    98.891954    5.3610292    1627.4977    110613.73 
  333000    603.64501   -273888.82            0   -270817.28   -85.662677    96.113141    103.24107    98.891954    4.0119392    1634.3224    110593.82 
  334000    601.17122   -273880.53            0   -270821.57   -461.52711    96.113141    103.24107    98.891954    4.5180914    1641.6593    110608.55 
  335000    595.55726   -273904.13            0   -270873.74   -450.71604    96.113141    103.24107    98.891954     4.784939     1648.553    110593.35 
  336000    596.05468   -273885.77            0   -270852.85   -790.51614    96.113141    103.24107    98.891954    4.8622047    1655.5651    110586.14 
  337000     601.5602   -273867.35            0   -270806.42   -778.38338    96.113141    103.24107    98.891954    4.0947412    1662.8901    110599.73 
  338000    600.70523   -273879.93            0   -270823.34   -790.02768    96.113141    103.24107    98.891954     3.996974    1669.5122     110566.6 
  339000    598.32342   -273902.12            0   -270857.65   -470.81589    96.113141    103.24107    98.891954    4.9981879    1676.6571    110568.17 
  340000    603.85049   -273880.63            0   -270808.05   -552.20419    96.113141    103.24107    98.891954       4.7635    1683.7734    110567.79 
  341000    599.13025   -273914.76            0   -270866.19   -822.58354    96.113141    103.24107    98.891954    4.4908729    1690.7683    110559.41 
  342000    603.05438   -273872.58            0   -270804.05   -663.46972    96.113141    103.24107    98.891954    4.5651009     1697.787    110552.59 
  343000    601.49363   -273874.36            0   -270813.76   -575.59654    96.113141    103.24107    98.891954    4.6316696    1705.0356    110560.68 
  344000    596.25449    -273892.1            0   -270858.16   -474.06969    96.113141    103.24107    98.891954    4.5814959    1711.8084    110537.92 
  345000    599.89177   -273898.89            0   -270846.44   -974.04772    96.113141    103.24107    98.891954    4.1740961    1719.2316    110557.12 
  346000     596.4184   -273892.58            0   -270857.81   -453.70072    96.113141    103.24107    98.891954    5.0329418    1726.0239     110535.7 
  347000    600.21652   -273888.57            0   -270834.47   -372.91389    96.113141    103.24107    98.891954    4.5158711    1733.0842    110531.48 
  348000    598.79045   -273898.65            0   -270851.81    -350.8462    96.113141    103.24107    98.891954    4.2751012    1740.1543    110527.87 
  349000    593.78164   -273864.75            0   -270843.39   -244.37305    96.113141    103.24107    98.891954    4.8357085    1747.0549     110513.5 
  350000    604.17757   -273898.58            0   -270824.33   -388.26198    96.113141    103.24107    98.891954    4.8052041    1753.8491     110492.5 
  351000    599.88025   -273896.64            0   -270844.25   -531.58313    96.113141    103.24107    98.891954    5.4046789    1761.2397    110509.02 
  352000     598.0583   -273894.02            0   -270850.91   -727.15824    96.113141    103.24107    98.891954    4.5683337    1768.1016    110492.32 
  353000    599.59347   -273879.38            0   -270828.46   -540.92093    96.113141    103.24107    98.891954    4.5069531    1775.0827    110483.11 
  354000    595.13009   -273899.01            0    -270870.8   -617.82913    96.113141    103.24107    98.891954    3.8919035     1782.327    110490.24 
  355000    597.49585   -273881.75            0    -270841.5   -428.96364    96.113141    103.24107    98.891954    5.2083746    1789.0389    110464.38 
  356000    602.77514   -273895.48            0   -270828.37    -370.9048    96.113141    103.24107    98.891954    4.2279594    1796.0557    110457.43 
  357000    600.20303   -273909.59            0   -270855.56   -492.10168    96.113141    103.24107    98.891954    4.4148649    1803.1695    110456.41 
  358000    602.66633   -273879.93            0   -270813.37   -540.86491    96.113141    103.24107    98.891954    5.0921124    1810.1222    110445.52 
  359000    600.82508   -273907.56            0   -270850.37   -463.52769    96.113141    103.24107    98.891954    4.5617595     1817.142    110438.74 
  360000    601.61527   -273882.98            0   -270821.77   -170.36858    96.113141    103.24107    98.891954    4.7393512    1824.2585     110437.8 
  361000    596.39703   -273896.04            0   -270861.38   -395.62081    96.113141    103.24107    98.891954    4.6720906    1830.9798    110412.99 
  362000    602.54734   -273911.09            0   -270845.13   -267.99239    96.113141    103.24107    98.891954    5.2757741    1838.1703     110416.5 
  363000    598.51744   -273914.48            0   -270869.03   -484.02478    96.113141    103.24107    98.891954    4.2544313    1845.0381    110400.63 
  364000    603.38851   -273914.94            0    -270844.7    -638.6117    96.113141    103.24107    98.891954    4.7266034    1852.2109    110402.99 
  365000    598.73084   -273901.46            0   -270854.92   -439.70451    96.113141    103.24107    98.891954    4.3147708    1859.3187    110401.43 
  366000    600.92822   -273877.59            0   -270819.87   -281.30211    96.113141    103.24107    98.891954    4.2686481     1866.216    110387.38 
  367000    596.65882   -273884.47            0   -270848.47   -703.00299    96.113141    103.24107    98.891954    4.6618336    1873.0045    110366.96 
  368000     601.6777   -273874.67            0   -270813.14   -575.38795    96.113141    103.24107    98.891954    4.6728348    1880.3584    110379.85 
  369000    595.79728   -273884.01            0    -270852.4   -573.13368    96.113141    103.24107    98.891954    4.6281423    1887.1001    110356.77 
  370000    602.25099   -273872.34            0   -270807.89   -496.40124    96.113141    103.24107    98.891954    4.7388899     1894.183     110353.7 
  371000    603.23221   -273887.14            0    -270817.7   -430.25209    96.113141    103.24107    98.891954    4.6358896     1901.501    110364.24 
  372000    598.75632   -273874.18            0   -270827.51   -537.89376    96.113141    103.24107    98.891954    4.9484857    1908.2316    110340.69 
  373000    602.63821   -273917.17            0   -270850.75   -506.07507    96.113141    103.24107    98.891954    4.5350797    1915.3699    110340.74 
  374000    603.94725   -273909.79            0   -270836.71   -573.03766    96.113141    103.24107    98.891954    4.1486598    1922.5152    110341.15 
  375000    597.54263   -273893.82            0   -270853.33   -453.18811    96.113141    103.24107    98.891954    4.8772164    1929.3791    110325.41 
  376000    600.00416    -273901.4            0   -270848.39   -271.82343    96.113141    103.24107    98.891954    4.8534925    1936.4014    110318.75 
  377000    604.36917   -273902.84            0   -270827.62   -658.76733    96.113141    103.24107    98.891954    4.4811416     1943.626    110323.58 
  378000    600.31708   -273911.32            0   -270856.72   -682.45934    96.113141    103.24107    98.891954    4.7263268    1950.2706    110295.52 
  379000      602.187   -273902.53            0   -270838.41   -423.17595    96.113141    103.24107    98.891954    5.0662866    1957.4879    110299.88 
  380000    597.87615   -273910.52            0   -270868.33   -479.59232    96.113141    103.24107    98.891954    4.3628028    1964.3215    110282.62 
  381000    596.71465   -273893.61            0   -270857.33    -474.2823    96.113141    103.24107    98.891954    5.7801989    1971.2385     110270.1 
  382000    603.48941   -273890.06            0   -270819.31    -168.9601    96.113141    103.24107    98.891954    4.9350502    1978.2925    110265.25 
  383000    600.55661    -273900.4            0   -270844.57   -379.42162    96.113141    103.24107    98.891954    4.2518727    1985.3793    110262.22 
  384000    602.20578   -273891.73            0   -270827.51   -611.92325    96.113141    103.24107    98.891954    4.8083373    1992.0717    110237.32 
  385000    596.52575   -273887.58            0   -270852.26   -582.13032    96.113141    103.24107    98.891954    4.5438463    1999.5299    110254.78 
  386000    598.34871   -273887.17            0   -270842.58   -469.75388    96.113141    103.24107    98.891954    4.8973898     2006.342    110236.57 
  387000    600.20627   -273889.18            0   -270835.14   -739.41477    96.113141    103.24107    98.891954    5.2015545    2013.4264    110233.34 
  388000    598.45698   -273899.65            0    -270854.5   -612.10046    96.113141    103.24107    98.891954    5.2029535    2020.6892    110239.82 
  389000    597.76178   -273891.26            0   -270849.65   -275.36499    96.113141    103.24107    98.891954    5.4450399    2027.6402    110229.26 
  390000    600.77045   -273874.69            0   -270817.77   -393.27924    96.113141    103.24107    98.891954    4.8237901    2034.5511    110216.54 
  391000    597.51936   -273899.81            0   -270859.44   -903.32656    96.113141    103.24107    98.891954     4.186104    2041.7493    110219.38 
  392000    608.08882   -273903.13            0   -270808.98    -764.3117    96.113141    103.24107    98.891954    5.4148194    2048.6319    110205.17 
  393000    599.32473   -273878.59            0   -270829.03   -439.90885    96.113141    103.24107    98.891954    4.6362966    2055.7127    110201.64 
  394000      604.153   -273884.96            0   -270810.84   -325.98724    96.113141    103.24107    98.891954    4.4055588    2062.9591    110206.92 
  395000    601.71853   -273907.83            0   -270846.09   -348.83172    96.113141    103.24107    98.891954     4.183909    2069.7194    110186.25 
  396000    602.37613   -273872.52            0   -270807.43   -468.67346    96.113141    103.24107    98.891954    4.2445996    2076.8623    110185.97 
  397000    601.80722   -273894.94            0   -270832.75   -626.32083    96.113141    103.24107    98.891954     4.309947    2083.8804    110179.04 
  398000    598.66059   -273882.51            0   -270836.33   -748.21541    96.113141    103.24107    98.891954    4.4060127    2090.8459    110169.33 
  399000    600.70789   -273875.56            0   -270818.97   -749.88858    96.113141    103.24107    98.891954    4.4767653    2097.9229    110165.51 
  400000    598.62382   -273904.85            0   -270858.86    -704.6199    96.113141    103.24107    98.891954    4.3140739    2105.1065    110167.24 
  401000    605.74567   -273914.84            0   -270832.61   -515.62987    96.113141    103.24107    98.891954     5.045553    2111.8452    110145.71 
  402000    597.32847   -273888.87            0   -270849.47   -558.28158    96.113141    103.24107    98.891954    4.4128155    2119.3408    110163.62 
  403000    600.75366   -273900.88            0   -270844.05   -790.07394    96.113141    103.24107    98.891954    4.7767467    2125.9713    110136.54 
  404000    599.14189   -273877.58            0   -270828.95   -357.06558    96.113141    103.24107    98.891954    4.6122877    2133.1059    110135.63 
  405000    601.81763   -273900.78            0   -270838.54   -194.85092    96.113141    103.24107    98.891954    4.7799232    2140.1997    110132.57 
  406000    601.42852   -273900.08            0   -270839.82   -662.60777    96.113141    103.24107    98.891954    4.0672986    2147.1738    110123.35 
  407000     597.7975   -273901.27            0   -270859.48   -494.03834    96.113141    103.24107    98.891954    4.2427646    2154.0351    110108.38 
  408000    598.53944   -273851.89            0   -270806.32   -627.93224    96.113141    103.24107    98.891954    4.3239044    2161.4226    110120.27 
  409000    605.72829   -273879.35            0   -270797.21   -432.10231    96.113141    103.24107    98.891954    4.8415442    2168.1703    110099.55 
  410000    598.95376   -273873.52            0   -270825.84   -294.15993    96.113141    103.24107    98.891954    4.8429457    2175.1709    110091.71 
  411000     601.2487   -273891.71            0   -270832.36   -588.92754    96.113141    103.24107    98.891954    3.8301494    2182.4819    110099.55 
  412000    596.56336   -273907.95            0   -270872.45   -275.46904    96.113141    103.24107    98.891954    5.6205579    2189.1709       110076 
  413000     603.2854   -273887.37            0   -270817.66   -483.54174    96.113141    103.24107    98.891954    4.1909159     2196.408    110080.04 
  414000    603.26026    -273906.8            0   -270837.22   -81.834057    96.113141    103.24107    98.891954    3.9146606    2203.4686    110075.19 
  415000    600.53002   -273915.38            0   -270859.69    -405.3387    96.113141    103.24107    98.891954    4.1637417    2210.4375    110065.75 
  416000    598.76017   -273873.19            0    -270826.5   -569.51214    96.113141    103.24107    98.891954     4.042665     2217.399    110055.97 
  417000    598.96914   -273919.28            0   -270871.53   -736.07609    96.113141    103.24107    98.891954     4.352842    2224.6872    110062.36 
  418000    598.76637   -273890.87            0   -270844.15   -450.49731    96.113141    103.24107    98.891954    4.3870776    2231.3641    110038.53 
  419000    602.78865    -273906.5            0   -270839.31   -745.80939    96.113141    103.24107    98.891954    4.6685478    2238.7462    110049.46 
  420000    606.96623   -273900.04            0    -270811.6   -616.39366    96.113141    103.24107    98.891954    4.2230324    2245.4865    110028.84 
  421000    599.79362   -273903.41            0   -270851.47   -386.23391    96.113141    103.24107    98.891954    4.3427538      2252.52    110022.62 
  422000    598.15695   -273900.56            0   -270856.94   -624.89222    96.113141    103.24107    98.891954     4.052695     2259.633    110020.27 
  423000    597.02245   -273902.15            0    -270864.3   -583.54192    96.113141    103.24107    98.891954    5.4912819    2266.5661    110009.15 
  424000     602.3506   -273895.88            0   -270830.93   -473.73847    96.113141    103.24107    98.891954    4.5168537    2273.3244    109989.61 
  425000    600.88211   -273874.53            0   -270817.05   -403.86199    96.113141    103.24107    98.891954     4.776885    2280.7887    110004.19 
  426000    601.24752   -273902.72            0   -270843.37   -555.54316    96.113141    103.24107    98.891954    4.0305791    2287.6264    109988.52 
  427000    601.41593   -273891.61            0   -270831.41   -590.71259    96.113141    103.24107    98.891954    4.2473119    2294.5929    109979.06 
  428000    600.38578   -273923.85            0   -270868.89   -491.18729    96.113141    103.24107    98.891954     4.151891    2301.8986    109985.84 
  429000    599.31545   -273892.29            0   -270842.77   -209.33741    96.113141    103.24107    98.891954    4.3637472    2308.6611    109966.65 
  430000    596.01965   -273900.03            0   -270867.29   -486.17191    96.113141    103.24107    98.891954    4.6001346    2315.6311    109957.39 
  431000    597.95067   -273868.17            0   -270825.61   -643.39426    96.113141    103.24107    98.891954    4.9207125    2322.8965    109962.13 
  432000    595.52028   -273882.56            0   -270852.36   -188.45734    96.113141    103.24107    98.891954    4.5465839    2329.8265    109950.97 
  433000    595.72655   -273893.74            0   -270862.49   -559.52742    96.113141    103.24107    98.891954    3.9269027     2336.791    109941.45 
  434000    600.61564    -273913.4            0   -270857.28   -572.77965    96.113141    103.24107    98.891954    5.0976454     2343.965    109941.78 
  435000    602.93079   -273900.03            0   -270832.12   -764.23821    96.113141    103.24107    98.891954    5.7848869    2350.6593    109919.64 
  436000    598.58196   -273897.81            0   -270852.03   -268.76562    96.113141    103.24107    98.891954    5.0855623    2357.9373    109924.79 
  437000     603.1741   -273886.21            0   -270817.06   -585.65348    96.113141    103.24107    98.891954    4.3915585    2364.9066    109915.52 
  438000    598.52629   -273890.76            0   -270845.27   -214.70635    96.113141    103.24107    98.891954    5.1261744    2371.9887     109911.5 
  439000      603.598   -273904.76            0   -270833.45   -135.95422    96.113141    103.24107    98.891954    4.2042217     2379.156    109911.39 
  440000    597.38493   -273879.85            0   -270840.16    -494.3898    96.113141    103.24107    98.891954    4.6651355    2386.1888    109905.05 
  441000    599.95333   -273889.36            0    -270836.6   -339.49561    96.113141    103.24107    98.891954    4.8349072    2393.0287    109889.84 
  442000    596.76112   -273874.75            0   -270838.24   -749.21942    96.113141    103.24107    98.891954    4.0486577     2400.447    109901.17 
  443000    600.80075   -273876.03            0   -270818.96   -472.32337    96.113141    103.24107    98.891954    4.4612283    2407.2484    109884.22 
  444000     602.4871    -273885.7            0   -270820.05   -552.84039    96.113141    103.24107    98.891954    4.7018463    2414.3027    109878.85 
  445000    601.86124   -273879.34            0   -270816.87   -425.59261    96.113141    103.24107    98.891954    4.5119208     2421.538    109881.67 
  446000    600.29057   -273880.22            0   -270825.75   -428.49438    96.113141    103.24107    98.891954    4.2504079    2428.3285    109864.32 
  447000    597.55457   -273880.65            0    -270840.1   -430.70175    96.113141    103.24107    98.891954    4.7113113    2435.4375    109861.39 
  448000    599.72284   -273891.96            0   -270840.38    -556.4034    96.113141    103.24107    98.891954    4.8040611    2442.5252    109857.48 
  449000    601.36065   -273883.12            0    -270823.2   -628.05073    96.113141    103.24107    98.891954    4.2603641    2449.4281    109845.27 
  450000    596.82032   -273884.79            0   -270847.97   -645.07108    96.113141    103.24107    98.891954    4.7466735    2456.3619    109834.47 
  451000    607.10578   -273882.38            0   -270793.23   -294.34344    96.113141    103.24107    98.891954    4.2441209    2463.5974    109837.14 
  452000     597.9942    -273878.4            0   -270835.62    -458.7268    96.113141    103.24107    98.891954    4.9424566    2470.3531    109818.43 
  453000    598.38385   -273920.75            0   -270875.98   -472.52016    96.113141    103.24107    98.891954    4.7088602    2477.5695     109820.2 
  454000    600.60859   -273921.27            0   -270865.18   -447.40997    96.113141    103.24107    98.891954    4.6832932    2484.5136    109809.88 
  455000    605.76389   -273883.53            0    -270801.2   -506.36004    96.113141    103.24107    98.891954    4.5399425    2491.5611    109804.15 
  456000    597.75655   -273898.57            0   -270856.99   -334.09268    96.113141    103.24107    98.891954    4.7609024    2498.6172    109798.78 
  457000    600.42279   -273894.61            0   -270839.47   -249.00463    96.113141    103.24107    98.891954    6.5405199    2505.7053    109794.81 
  458000    601.46206   -273883.69            0   -270823.25   -405.52618    96.113141    103.24107    98.891954    4.4385876    2512.4221     109774.6 
  459000    599.55041   -273884.56            0   -270833.86   -339.46507    96.113141    103.24107    98.891954    4.3938694    2519.8766     109786.6 
  460000    598.76532   -273924.46            0   -270877.75   -528.79638    96.113141    103.24107    98.891954    4.4247296    2526.5531     109764.7 
  461000    601.25849   -273908.52            0   -270849.12   -642.08769    96.113141    103.24107    98.891954     4.377947    2533.5902     109758.5 
  462000    599.93882   -273902.17            0   -270849.49   -550.41821    96.113141    103.24107    98.891954    4.4978811    2540.7527    109757.71 
  463000    600.28905   -273909.17            0    -270854.7   -380.49888    96.113141    103.24107    98.891954    4.8802828    2547.7175    109748.37 
  464000    598.84272   -273911.58            0   -270864.48   -759.13792    96.113141    103.24107    98.891954    4.6638296    2554.6778    109738.85 
  465000    599.40693   -273872.51            0   -270822.53   -84.785443    96.113141    103.24107    98.891954    4.8276031    2561.8689    109739.23 
  466000    601.10667   -273878.78            0   -270820.15   -481.24047    96.113141    103.24107    98.891954    3.8516964     2568.667    109722.79 
  467000    598.47934   -273892.93            0   -270847.68   -484.55255    96.113141    103.24107    98.891954    4.4834725    2575.7438    109718.26 
  468000    602.47272   -273915.95            0   -270850.37   -561.11268    96.113141    103.24107    98.891954    4.2383891    2583.0085    109721.71 
  469000    599.03408   -273900.88            0    -270852.8   -376.88514    96.113141    103.24107    98.891954    4.8108466    2589.6946    109700.59 
  470000    599.22961   -273903.49            0   -270854.42    -490.2082    96.113141    103.24107    98.891954    4.5122151    2596.8988    109701.43 
  471000     599.7319   -273880.37            0   -270828.74   -218.26106    96.113141    103.24107    98.891954    4.1054845    2603.8333    109690.87 
  472000    601.05041   -273902.15            0   -270843.81   -706.53752    96.113141    103.24107    98.891954    4.5730108    2610.7831    109680.96 
[...]
15980000    600.29664   -273905.44            0   -270850.93   -385.61972    96.113141    103.24107    98.891954      4.49002    112007.18    846.40183 
15981000     598.6907   -273921.32            0   -270874.98   -606.12163    96.113141    103.24107    98.891954    5.0675875    112014.29    839.34893 
15982000    598.00753   -273921.99            0   -270879.13    -370.9202    96.113141    103.24107    98.891954    4.8039222    112021.06    832.29348 
15983000    593.52167   -273920.14            0   -270900.11   -467.88971    96.113141    103.24107    98.891954     4.425047    112028.24    825.24105 
15984000    595.94142   -273882.01            0   -270849.66   -423.05486    96.113141    103.24107    98.891954    4.3072044    112035.27    818.18756 
15985000    598.50083   -273907.03            0   -270861.67   -529.66627    96.113141    103.24107    98.891954    5.7774365    112042.68    811.13678 
15986000    602.39716   -273928.05            0   -270862.86   -427.11249    96.113141    103.24107    98.891954    4.2444814    112049.47    804.08152 
15987000    600.93253   -273918.63            0   -270860.89   -486.54563    96.113141    103.24107    98.891954     4.352128    112056.44     797.0276 
15988000    597.48103   -273943.73            0   -270903.55   -442.29798    96.113141    103.24107    98.891954    4.4170322    112063.16    789.97195 
15989000    600.72033   -273930.21            0   -270873.55   -596.59745    96.113141    103.24107    98.891954     4.416508    112070.41    782.92001 
15990000    598.27422   -273936.34            0   -270892.13   -256.49307    96.113141    103.24107    98.891954    4.4667502    112077.45    775.86653 
15991000    600.33399   -273902.21            0   -270847.52   -224.90894    96.113141    103.24107    98.891954    4.4967261    112084.61    768.81394 
15992000    598.02474   -273945.85            0    -270902.9   -574.17194    96.113141    103.24107    98.891954     3.996417    112091.52    761.75966 
15993000    604.46941   -273906.89            0   -270831.15   -505.23185    96.113141    103.24107    98.891954    4.7215552    112098.48    754.70565 
15994000    600.65568   -273924.18            0   -270867.85   -510.97007    96.113141    103.24107    98.891954    4.2868266    112105.37    747.65126 
15995000    599.21157   -273921.81            0   -270872.82   -247.99165    96.113141    103.24107    98.891954    4.5422686    112112.44    740.59804 
15996000     598.8488   -273908.55            0   -270861.41   -352.74216    96.113141    103.24107    98.891954    4.6252301     112119.7    733.54607 
15997000    595.15343   -273932.58            0   -270904.25   -642.30112    96.113141    103.24107    98.891954    4.1484292    112126.66    726.49214 
15998000    603.01682    -273944.4            0   -270876.06   -665.47368    96.113141    103.24107    98.891954    4.8070696     112133.8    719.43942 
15999000    601.85266   -273935.85            0   -270873.42   -168.45963    96.113141    103.24107    98.891954    4.2616532    112140.53    712.38402 
16000000    597.66574   -273937.26            0   -270896.15    -517.5688    96.113141    103.24107    98.891954    4.7019627     112147.5     705.3302 
16001000    603.52744   -273942.53            0   -270871.58   -423.18275    96.113141    103.24107    98.891954    4.3928077    112154.63    698.27735 
16002000    599.52321   -273935.02            0   -270884.45   -630.35052    96.113141    103.24107    98.891954    5.1807842    112162.06    691.22635 
16003000    594.55639   -273912.75            0   -270887.45   -567.33831    96.113141    103.24107    98.891954    4.8776539    112168.99    684.17229 
16004000    600.12111   -273932.17            0   -270878.56   -652.62488    96.113141    103.24107    98.891954    4.0258211    112175.99    677.11868 
16005000    600.12123   -273917.91            0    -270864.3    -543.1602    96.113141    103.24107    98.891954    4.5050226    112182.73    670.06344 
16006000     599.8593   -273923.53            0   -270871.25   -314.01367    96.113141    103.24107    98.891954    4.7323476    112190.07    663.01188 
16007000     598.4211   -273941.01            0   -270896.04   -693.52252    96.113141    103.24107    98.891954     4.446824       112197    655.95779 
16008000    597.40369   -273909.39            0   -270869.61   -539.82505    96.113141    103.24107    98.891954    4.8444295    112204.31    648.90598 
16009000    604.01797   -273921.65            0   -270848.21   -653.46193    96.113141    103.24107    98.891954    4.4844212    112211.29    641.85222 
16010000    598.08857   -273925.16            0   -270881.89    -624.1263    96.113141    103.24107    98.891954     4.869502    112218.21    634.79819 
16011000    598.34696   -273918.29            0    -270873.7   -1024.1916    96.113141    103.24107    98.891954    5.7666392    112225.07    627.74378 
16012000    599.32143   -273909.89            0   -270860.35   -688.39913    96.113141    103.24107    98.891954    4.2025903    112232.28    620.69132 
16013000    599.87348   -273933.93            0   -270881.58   -824.94142    96.113141    103.24107    98.891954    4.7199761    112239.46    613.63871 
16014000    596.88358   -273903.31            0   -270866.17   -525.75496    96.113141    103.24107    98.891954    4.5793007    112246.38     606.5847 
16015000    602.12308   -273940.33            0   -270876.53   -594.93571    96.113141    103.24107    98.891954    4.7083359    112253.43    599.53134 
16016000    599.14385   -273904.94            0    -270856.3   -587.28769    96.113141    103.24107    98.891954    4.3154414    112260.21     592.4766 
16017000    602.32319   -273927.32            0    -270862.5   -671.57085    96.113141    103.24107    98.891954    4.4021884    112267.27    585.42337 
16018000    601.99587   -273920.68            0   -270857.53   -355.19565    96.113141    103.24107    98.891954    4.2011377    112274.27    578.36976 
16019000    598.74045   -273936.13            0   -270889.54    -326.7111    96.113141    103.24107    98.891954    4.0977244    112281.78    571.31883 
16020000    601.17219   -273921.89            0   -270862.93   -554.49194    96.113141    103.24107    98.891954    4.3296372    112288.52    564.26394 
16021000    600.07934   -273908.79            0   -270855.39   -592.39165    96.113141    103.24107    98.891954    4.2847622    112295.57    557.21063 
16022000    602.92348   -273917.83            0   -270849.96   -493.06373    96.113141    103.24107    98.891954    4.2204279     112302.4     550.1562 
16023000    600.20426   -273914.96            0   -270860.93   -583.78975    96.113141    103.24107    98.891954    5.3372203    112309.64    543.10383 
16024000    598.95842      -273931            0    -270883.3   -394.52535    96.113141    103.24107    98.891954    4.7131413    112316.59    536.05003 
16025000    596.93161   -273908.25            0   -270870.87   -586.29321    96.113141    103.24107    98.891954    4.1993343    112323.99    528.99841 
16026000    598.95556    -273902.4            0   -270854.72    -636.2318    96.113141    103.24107    98.891954    5.6811854    112330.94    521.94461 
16027000     595.1384   -273904.72            0   -270876.46   -515.31263    96.113141    103.24107    98.891954    4.1013815    112337.88    514.89077 
16028000     599.8185   -273916.19            0   -270864.12    -548.3235    96.113141    103.24107    98.891954    4.3700795    112344.71    507.83648 
16029000    599.61641   -273945.07            0   -270894.03   -781.78413    96.113141    103.24107    98.891954    4.1820967    112351.87    500.78363 
16030000    600.72112   -273903.67            0   -270847.01   -497.45931    96.113141    103.24107    98.891954    4.0360126    112359.22    493.73164 
16031000     602.1265    -273905.5            0   -270841.69   -518.97867    96.113141    103.24107    98.891954    4.2861611    112366.12    486.67768 
16032000    602.79476    -273916.4            0   -270849.19   -347.30084    96.113141    103.24107    98.891954    5.4994728    112373.15    479.62429 
16033000    593.97215   -273916.69            0   -270894.37   -431.38736    96.113141    103.24107    98.891954    4.7551916    112379.93    472.56983 
16034000     599.3147   -273932.74            0   -270883.23   -569.19864    96.113141    103.24107    98.891954    4.4190229    112386.98    465.51653 
16035000    602.29403   -273900.95            0   -270836.28   -208.92489    96.113141    103.24107    98.891954    4.0122698    112393.99    458.46307 
16036000    596.93623   -273927.82            0   -270890.41   -627.33144    96.113141    103.24107    98.891954    4.4018741    112401.36    451.41107 
16037000    598.10937   -273907.45            0   -270864.08   -424.85227    96.113141    103.24107    98.891954    4.6720204    112408.08    444.35645 
16038000     601.4481   -273890.81            0   -270830.45   -674.59331    96.113141    103.24107    98.891954    4.9916822    112415.18    437.30336 
16039000    603.10493   -273930.78            0   -270861.98   -527.77571    96.113141    103.24107    98.891954     4.198402    112421.92     430.2489 
16040000    597.38626   -273887.89            0   -270848.19   -442.26515    96.113141    103.24107    98.891954    4.3023243    112429.34    423.19701 
16041000    601.73834    -273928.7            0   -270866.86    -423.2596    96.113141    103.24107    98.891954    4.3170643     112436.4    416.14374 
16042000     595.6576   -273911.76            0   -270880.86   -593.38417    96.113141    103.24107    98.891954    4.1289549    112443.66    409.09121 
16043000    602.26122   -273911.04            0   -270846.54   -486.68991    96.113141    103.24107    98.891954    4.3402689    112450.45    402.03697 
16044000    598.95242   -273947.25            0   -270899.59   -598.82072    96.113141    103.24107    98.891954    5.0747563    112457.44    394.98347 
16045000    599.96351   -273919.11            0    -270866.3   -390.35758    96.113141    103.24107    98.891954    4.2811485     112464.2    387.92921 
16046000    599.41709   -273904.71            0   -270854.68   -435.93495    96.113141    103.24107    98.891954     5.102164    112471.46    380.87663 
16047000    599.28603   -273927.68            0   -270878.32   -425.68342    96.113141    103.24107    98.891954    4.7537714    112478.73     373.8241 
16048000    599.55611   -273909.02            0   -270858.29   -611.44964    96.113141    103.24107    98.891954    4.7142091    112485.81     366.7709 
16049000    601.40408   -273885.24            0    -270825.1   -148.95329    96.113141    103.24107    98.891954    4.6463282    112492.94    359.71784 
16050000    595.11395    -273894.5            0   -270866.37   -584.49629    96.113141    103.24107    98.891954    4.5379352    112499.69    352.66361 
16051000    599.56751   -273926.82            0   -270876.02   -590.28498    96.113141    103.24107    98.891954    4.3793497    112506.74    345.61033 
16052000    599.20702   -273909.39            0   -270860.43   -453.77264    96.113141    103.24107    98.891954    4.4898922    112513.89    338.55735 
16053000    597.45099   -273914.77            0   -270874.75   -559.55228    96.113141    103.24107    98.891954    5.5168197    112521.38    331.50536 
16054000    597.92513   -273912.78            0   -270870.34   -343.98943    96.113141    103.24107    98.891954    4.1797902    112528.16    324.45124 
16055000    598.32558   -273917.32            0   -270872.85   -710.48588    96.113141    103.24107    98.891954    4.3664773    112535.26     317.3981 
16056000     604.2116   -273924.75            0   -270850.33   -455.91477    96.113141    103.24107    98.891954    5.0178751    112542.08    310.34418 
16057000    597.98215   -273929.05            0   -270886.32   -307.85621    96.113141    103.24107    98.891954    4.3788118    112549.36     303.2915 
16058000    601.02126   -273910.43            0   -270852.24   -536.05718    96.113141    103.24107    98.891954    4.2063586    112556.26    296.23781 
16059000    601.25587   -273928.15            0   -270868.76   -380.36297    96.113141    103.24107    98.891954    4.3368791    112563.66    289.18542 
16060000     595.0874   -273924.36            0   -270896.36   -523.66339    96.113141    103.24107    98.891954    4.2478471    112570.55    282.13172 
16061000    600.99058   -273943.54            0   -270885.51   -753.35133    96.113141    103.24107    98.891954    3.8459126    112577.52     275.0782 
16062000    599.89557   -273922.91            0   -270870.44   -434.75925    96.113141    103.24107    98.891954    4.7503731     112584.3    268.02427 
16063000    600.64675   -273940.24            0   -270883.96   -654.05383    96.113141    103.24107    98.891954    4.1452205    112591.56    260.97149 
16064000    601.90566   -273905.26            0   -270842.57   -528.84474    96.113141    103.24107    98.891954    3.9609859    112598.85    253.91874 
16065000    602.63657   -273946.62            0   -270880.21   -388.33296    96.113141    103.24107    98.891954     4.312025    112605.84    246.86529 
16066000    595.68475   -273921.56            0   -270890.52   -590.10514    96.113141    103.24107    98.891954    4.8445125    112612.88    239.81198 
16067000    601.30595   -273928.95            0   -270869.31   -552.63024    96.113141    103.24107    98.891954    4.1660698    112619.62    232.75803 
16068000    602.26771   -273919.85            0   -270855.32   -478.38008    96.113141    103.24107    98.891954     4.244351    112626.61    225.70462 
16069000    600.59206   -273925.82            0   -270869.81   -677.79587    96.113141    103.24107    98.891954    4.0249127    112633.61    218.65126 
16070000     599.6359   -273938.99            0   -270887.85    -854.8177    96.113141    103.24107    98.891954    5.1904312     112641.1     211.5988 
16071000    596.79151   -273934.41            0   -270897.74   -379.62699    96.113141    103.24107    98.891954    5.4896638    112647.86    204.54498 
16072000    595.65879   -273927.53            0   -270896.62   -660.80368    96.113141    103.24107    98.891954    4.2597895    112654.92    197.49172 
16073000    597.90113   -273915.78            0   -270873.47    -597.9998    96.113141    103.24107    98.891954    4.1718466    112661.68    190.43795 
16074000    595.96342   -273919.19            0   -270886.73   -467.37623    96.113141    103.24107    98.891954    4.4854928    112668.83    183.38485 
16075000    600.77318      -273900            0   -270843.07   -396.10853    96.113141    103.24107    98.891954    4.6545333     112675.8    176.33146 
16076000    598.61102   -273925.54            0   -270879.61    -314.1629    96.113141    103.24107    98.891954    4.5080219    112683.19     169.2787 
16077000    598.76591   -273921.44            0   -270874.72    -432.6901    96.113141    103.24107    98.891954    4.2958171    112689.98    162.22505 
16078000    599.28787   -273933.45            0   -270884.08   -470.45604    96.113141    103.24107    98.891954    4.0363189    112696.93    155.17164 
16079000    601.72271   -273938.08            0   -270876.32    7.4861539    96.113141    103.24107    98.891954    4.2703055    112703.81    148.11816 
16080000    599.41633   -273910.97            0   -270860.95    -356.8951    96.113141    103.24107    98.891954    4.4622143    112711.11    141.06522 
16081000    597.26372   -273921.75            0   -270882.68   -481.30313    96.113141    103.24107    98.891954    4.4346176    112718.28    134.01209 
16082000    601.22902   -273923.62            0   -270864.37   -11.945181    96.113141    103.24107    98.891954    4.4798794    112725.45    126.95896 
16083000    600.41417   -273933.05            0   -270877.95   -205.74084    96.113141    103.24107    98.891954    4.1850561    112732.53    119.90571 
16084000    597.50098   -273916.76            0   -270876.48   -205.19403    96.113141    103.24107    98.891954    4.7672958    112739.37    112.85222 
16085000    603.91984   -273924.12            0   -270851.18   -395.77131    96.113141    103.24107    98.891954    4.3477354    112746.36     105.7989 
16086000    602.25118   -273926.98            0   -270862.53    -415.4493    96.113141    103.24107    98.891954    4.1174501     112753.4     98.74563 
16087000    595.37224   -273915.52            0   -270886.07   -612.49677    96.113141    103.24107    98.891954    4.0569528    112760.84    91.692681 
16088000    598.79474   -273947.68            0   -270900.82    -472.4625    96.113141    103.24107    98.891954    5.0378977    112767.63      84.6392 
16089000    597.81703   -273911.57            0   -270869.68   -662.42704    96.113141    103.24107    98.891954    4.4440764    112774.69    77.585942 
16090000    606.94325   -273944.12            0   -270855.79    -424.6817    96.113141    103.24107    98.891954    4.8139932    112781.45     70.53249 
16091000    597.52285   -273921.56            0   -270881.17   -598.18568    96.113141    103.24107    98.891954    4.8699789    112788.57    63.479275 
16092000    598.37194   -273932.46            0   -270887.75   -636.25173    96.113141    103.24107    98.891954    4.6640488    112795.61     56.42602 
16093000    598.91008   -273905.94            0   -270858.49   -529.32285    96.113141    103.24107    98.891954    5.3718211    112803.06    49.372939 
16094000    597.07164    -273920.2            0   -270882.11    -716.4711    96.113141    103.24107    98.891954     4.107533    112809.85    42.319564 
16095000    597.77071   -273925.86            0    -270884.2   -542.89008    96.113141    103.24107    98.891954    4.7072237    112816.87    35.266292 
16096000     602.4528   -273916.96            0   -270851.49   -337.28519    96.113141    103.24107    98.891954    4.6031151    112823.63     28.21296 
16097000    596.96526    -273915.4            0   -270877.84   -619.92618    96.113141    103.24107    98.891954    5.1440778    112830.91    21.159763 
16098000    603.74828   -273903.85            0   -270831.79   -538.02296    96.113141    103.24107    98.891954    4.5587467    112837.98    14.106511 
16099000    598.50605   -273935.52            0   -270890.12   -440.11793    96.113141    103.24107    98.891954    4.6103661     112845.2    7.0532656 
16100000    602.32018   -273921.88            0   -270857.08   -116.80321    96.113141    103.24107    98.891954    4.1528377    112852.15            0 
Loop time of 112852 on 160 procs for 16000000 steps with 39366 atoms

Performance: 12.250 ns/day, 1.959 hours/ns, 141.778 timesteps/s
99.0% CPU use with 160 MPI tasks x 1 OpenMP threads

MPI task timing breakdown:
Section |  min time  |  avg time  |  max time  |%varavg| %total
---------------------------------------------------------------
Pair    | 23454      | 24668      | 27469      | 564.9 | 21.86
Kspace  | 69260      | 72089      | 73496      | 310.7 | 63.88
Neigh   | 1131.7     | 1198       | 1317.1     | 123.3 |  1.06
Comm    | 11347      | 12180      | 13282      | 295.2 | 10.79
Output  | 608.68     | 608.74     | 608.75     |   0.0 |  0.54
Modify  | 1519.6     | 1852.4     | 2246.6     | 404.8 |  1.64
Other   |            | 255.3      |            |       |  0.23

Nlocal:    246.037 ave 266 max 227 min
Histogram: 2 7 15 22 37 39 17 13 5 3
Nghost:    3831.81 ave 3884 max 3783 min
Histogram: 5 5 18 33 26 29 19 13 9 3
Neighs:    56620.3 ave 62167 max 51214 min
Histogram: 3 5 17 20 34 44 15 12 7 3

Total # of neighbors = 9059242
Ave neighs/atom = 230.129
Neighbor list builds = 582772
Dangerous builds = 0

# Final Commands
variable        final_energy equal etotal
print           "final_energy: ${'final_energy'}"
ERROR on proc 0: Substitution for illegal variable 'final_energy' (../input.cpp:553)
Last command: final_energy: ${'final_energy'
