 # Li8704 Sc2560 Cl16384
 
       27648  atoms
           3  atom types
 
      0.000000000000      83.229600000000  xlo xhi
      0.000000000000      83.229600000000  ylo yhi
      0.000000000000      83.229600000000  zlo zhi
 
Masses
 
            1   6.94000000              # Li
            2   44.95591200             # Sc
            3   35.45000000             # Cl
 
Atoms # charge
 
         1    1   1.000000        3.901387500000       3.901387500000       9.103237500000
         2    1   1.000000        3.901387500000       3.901387500000      19.506937500000
         3    1   1.000000        3.901387500000       3.901387500000      29.910637500000
         4    1   1.000000        3.901387500000       3.901387500000      40.314337500000
         5    1   1.000000        3.901387500000       3.901387500000      50.718037500000
         6    1   1.000000        3.901387500000       3.901387500000      61.121737500000
         7    1   1.000000        3.901387500000       3.901387500000      71.525437500000
         8    1   1.000000        3.901387500000       3.901387500000      81.929137500000
         9    1   1.000000        3.901387500000      14.305087500000       9.103237500000
        10    1   1.000000        3.901387500000      14.305087500000      19.506937500000
        11    1   1.000000        3.901387500000      14.305087500000      29.910637500000
        12    1   1.000000        3.901387500000      14.305087500000      40.314337500000
        13    1   1.000000        3.901387500000      14.305087500000      50.718037500000
        14    1   1.000000        3.901387500000      14.305087500000      61.121737500000
        15    1   1.000000        3.901387500000      14.305087500000      71.525437500000
        16    1   1.000000        3.901387500000      14.305087500000      81.929137500000
        17    1   1.000000        3.901387500000      24.708787500000       9.103237500000
        18    1   1.000000        3.901387500000      24.708787500000      19.506937500000
        19    1   1.000000        3.901387500000      24.708787500000      29.910637500000
        20    1   1.000000        3.901387500000      24.708787500000      40.314337500000
        21    1   1.000000        3.901387500000      24.708787500000      50.718037500000
        22    1   1.000000        3.901387500000      24.708787500000      61.121737500000
        23    1   1.000000        3.901387500000      24.708787500000      71.525437500000
        24    1   1.000000        3.901387500000      24.708787500000      81.929137500000
        25    1   1.000000        3.901387500000      35.112487500000       9.103237500000
        26    1   1.000000        3.901387500000      35.112487500000      19.506937500000
        27    1   1.000000        3.901387500000      35.112487500000      29.910637500000
        28    1   1.000000        3.901387500000      35.112487500000      40.314337500000
        29    1   1.000000        3.901387500000      35.112487500000      50.718037500000
        30    1   1.000000        3.901387500000      35.112487500000      61.121737500000
        31    1   1.000000        3.901387500000      35.112487500000      71.525437500000
        32    1   1.000000        3.901387500000      35.112487500000      81.929137500000
        33    1   1.000000        3.901387500000      45.516187500000       9.103237500000
        34    1   1.000000        3.901387500000      45.516187500000      19.506937500000
        35    1   1.000000        3.901387500000      45.516187500000      29.910637500000
        36    1   1.000000        3.901387500000      45.516187500000      40.314337500000
        37    1   1.000000        3.901387500000      45.516187500000      50.718037500000
        38    1   1.000000        3.901387500000      45.516187500000      61.121737500000
        39    1   1.000000        3.901387500000      45.516187500000      71.525437500000
        40    1   1.000000        3.901387500000      45.516187500000      81.929137500000
        41    1   1.000000        3.901387500000      55.919887500000       9.103237500000
        42    1   1.000000        3.901387500000      55.919887500000      19.506937500000
        43    1   1.000000        3.901387500000      55.919887500000      29.910637500000
        44    1   1.000000        3.901387500000      55.919887500000      40.314337500000
        45    1   1.000000        3.901387500000      55.919887500000      50.718037500000
        46    1   1.000000        3.901387500000      55.919887500000      61.121737500000
        47    1   1.000000        3.901387500000      55.919887500000      71.525437500000
        48    1   1.000000        3.901387500000      55.919887500000      81.929137500000
        49    1   1.000000        3.901387500000      66.323587500000       9.103237500000
        50    1   1.000000        3.901387500000      66.323587500000      19.506937500000
        51    1   1.000000        3.901387500000      66.323587500000      29.910637500000
        52    1   1.000000        3.901387500000      66.323587500000      40.314337500000
        53    1   1.000000        3.901387500000      66.323587500000      50.718037500000
        54    1   1.000000        3.901387500000      66.323587500000      61.121737500000
        55    1   1.000000        3.901387500000      66.323587500000      71.525437500000
        56    1   1.000000        3.901387500000      66.323587500000      81.929137500000
        57    1   1.000000        3.901387500000      76.727287500000       9.103237500000
        58    1   1.000000        3.901387500000      76.727287500000      19.506937500000
        59    1   1.000000        3.901387500000      76.727287500000      29.910637500000
        60    1   1.000000        3.901387500000      76.727287500000      40.314337500000
        61    1   1.000000        3.901387500000      76.727287500000      50.718037500000
        62    1   1.000000        3.901387500000      76.727287500000      61.121737500000
        63    1   1.000000        3.901387500000      76.727287500000      71.525437500000
        64    1   1.000000        3.901387500000      76.727287500000      81.929137500000
        65    1   1.000000       14.305087500000       3.901387500000       9.103237500000
        66    1   1.000000       14.305087500000       3.901387500000      19.506937500000
        67    1   1.000000       14.305087500000       3.901387500000      29.910637500000
        68    1   1.000000       14.305087500000       3.901387500000      40.314337500000
        69    1   1.000000       14.305087500000       3.901387500000      50.718037500000
        70    1   1.000000       14.305087500000       3.901387500000      61.121737500000
        71    1   1.000000       14.305087500000       3.901387500000      71.525437500000
        72    1   1.000000       14.305087500000       3.901387500000      81.929137500000
        73    1   1.000000       14.305087500000      14.305087500000       9.103237500000
        74    1   1.000000       14.305087500000      14.305087500000      19.506937500000
        75    1   1.000000       14.305087500000      14.305087500000      29.910637500000
        76    1   1.000000       14.305087500000      14.305087500000      40.314337500000
        77    1   1.000000       14.305087500000      14.305087500000      50.718037500000
        78    1   1.000000       14.305087500000      14.305087500000      61.121737500000
        79    1   1.000000       14.305087500000      14.305087500000      71.525437500000
        80    1   1.000000       14.305087500000      14.305087500000      81.929137500000
        81    1   1.000000       14.305087500000      24.708787500000       9.103237500000
        82    1   1.000000       14.305087500000      24.708787500000      19.506937500000
        83    1   1.000000       14.305087500000      24.708787500000      29.910637500000
        84    1   1.000000       14.305087500000      24.708787500000      40.314337500000
        85    1   1.000000       14.305087500000      24.708787500000      50.718037500000
        86    1   1.000000       14.305087500000      24.708787500000      61.121737500000
        87    1   1.000000       14.305087500000      24.708787500000      71.525437500000
        88    1   1.000000       14.305087500000      24.708787500000      81.929137500000
        89    1   1.000000       14.305087500000      35.112487500000       9.103237500000
        90    1   1.000000       14.305087500000      35.112487500000      19.506937500000
        91    1   1.000000       14.305087500000      35.112487500000      29.910637500000
        92    1   1.000000       14.305087500000      35.112487500000      40.314337500000
        93    1   1.000000       14.305087500000      35.112487500000      50.718037500000
        94    1   1.000000       14.305087500000      35.112487500000      61.121737500000
        95    1   1.000000       14.305087500000      35.112487500000      71.525437500000
        96    1   1.000000       14.305087500000      35.112487500000      81.929137500000
        97    1   1.000000       14.305087500000      45.516187500000       9.103237500000
        98    1   1.000000       14.305087500000      45.516187500000      19.506937500000
        99    1   1.000000       14.305087500000      45.516187500000      29.910637500000
       100    1   1.000000       14.305087500000      45.516187500000      40.314337500000
       101    1   1.000000       14.305087500000      45.516187500000      50.718037500000
       102    1   1.000000       14.305087500000      45.516187500000      61.121737500000
       103    1   1.000000       14.305087500000      45.516187500000      71.525437500000
       104    1   1.000000       14.305087500000      45.516187500000      81.929137500000
       105    1   1.000000       14.305087500000      55.919887500000       9.103237500000
       106    1   1.000000       14.305087500000      55.919887500000      19.506937500000
       107    1   1.000000       14.305087500000      55.919887500000      29.910637500000
       108    1   1.000000       14.305087500000      55.919887500000      40.314337500000
       109    1   1.000000       14.305087500000      55.919887500000      50.718037500000
       110    1   1.000000       14.305087500000      55.919887500000      61.121737500000
       111    1   1.000000       14.305087500000      55.919887500000      71.525437500000
       112    1   1.000000       14.305087500000      55.919887500000      81.929137500000
       113    1   1.000000       14.305087500000      66.323587500000       9.103237500000
       114    1   1.000000       14.305087500000      66.323587500000      19.506937500000
       115    1   1.000000       14.305087500000      66.323587500000      29.910637500000
       116    1   1.000000       14.305087500000      66.323587500000      40.314337500000
       117    1   1.000000       14.305087500000      66.323587500000      50.718037500000
       118    1   1.000000       14.305087500000      66.323587500000      61.121737500000
       119    1   1.000000       14.305087500000      66.323587500000      71.525437500000
       120    1   1.000000       14.305087500000      66.323587500000      81.929137500000
       121    1   1.000000       14.305087500000      76.727287500000       9.103237500000
       122    1   1.000000       14.305087500000      76.727287500000      19.506937500000
       123    1   1.000000       14.305087500000      76.727287500000      29.910637500000
       124    1   1.000000       14.305087500000      76.727287500000      40.314337500000
       125    1   1.000000       14.305087500000      76.727287500000      50.718037500000
       126    1   1.000000       14.305087500000      76.727287500000      61.121737500000
       127    1   1.000000       14.305087500000      76.727287500000      71.525437500000
       128    1   1.000000       14.305087500000      76.727287500000      81.929137500000
       129    1   1.000000       24.708787500000       3.901387500000       9.103237500000
       130    1   1.000000       24.708787500000       3.901387500000      19.506937500000
       131    1   1.000000       24.708787500000       3.901387500000      29.910637500000
       132    1   1.000000       24.708787500000       3.901387500000      40.314337500000
       133    1   1.000000       24.708787500000       3.901387500000      50.718037500000
       134    1   1.000000       24.708787500000       3.901387500000      61.121737500000
       135    1   1.000000       24.708787500000       3.901387500000      71.525437500000
       136    1   1.000000       24.708787500000       3.901387500000      81.929137500000
       137    1   1.000000       24.708787500000      14.305087500000       9.103237500000
       138    1   1.000000       24.708787500000      14.305087500000      19.506937500000
       139    1   1.000000       24.708787500000      14.305087500000      29.910637500000
       140    1   1.000000       24.708787500000      14.305087500000      40.314337500000
       141    1   1.000000       24.708787500000      14.305087500000      50.718037500000
       142    1   1.000000       24.708787500000      14.305087500000      61.121737500000
       143    1   1.000000       24.708787500000      14.305087500000      71.525437500000
       144    1   1.000000       24.708787500000      14.305087500000      81.929137500000
       145    1   1.000000       24.708787500000      24.708787500000       9.103237500000
       146    1   1.000000       24.708787500000      24.708787500000      19.506937500000
       147    1   1.000000       24.708787500000      24.708787500000      29.910637500000
       148    1   1.000000       24.708787500000      24.708787500000      40.314337500000
       149    1   1.000000       24.708787500000      24.708787500000      50.718037500000
       150    1   1.000000       24.708787500000      24.708787500000      61.121737500000
       151    1   1.000000       24.708787500000      24.708787500000      71.525437500000
       152    1   1.000000       24.708787500000      24.708787500000      81.929137500000
       153    1   1.000000       24.708787500000      35.112487500000       9.103237500000
       154    1   1.000000       24.708787500000      35.112487500000      19.506937500000
       155    1   1.000000       24.708787500000      35.112487500000      29.910637500000
       156    1   1.000000       24.708787500000      35.112487500000      40.314337500000
       157    1   1.000000       24.708787500000      35.112487500000      50.718037500000
       158    1   1.000000       24.708787500000      35.112487500000      61.121737500000
       159    1   1.000000       24.708787500000      35.112487500000      71.525437500000
       160    1   1.000000       24.708787500000      35.112487500000      81.929137500000
       161    1   1.000000       24.708787500000      45.516187500000       9.103237500000
       162    1   1.000000       24.708787500000      45.516187500000      19.506937500000
       163    1   1.000000       24.708787500000      45.516187500000      29.910637500000
       164    1   1.000000       24.708787500000      45.516187500000      40.314337500000
       165    1   1.000000       24.708787500000      45.516187500000      50.718037500000
       166    1   1.000000       24.708787500000      45.516187500000      61.121737500000
       167    1   1.000000       24.708787500000      45.516187500000      71.525437500000
       168    1   1.000000       24.708787500000      45.516187500000      81.929137500000
       169    1   1.000000       24.708787500000      55.919887500000       9.103237500000
       170    1   1.000000       24.708787500000      55.919887500000      19.506937500000
       171    1   1.000000       24.708787500000      55.919887500000      29.910637500000
       172    1   1.000000       24.708787500000      55.919887500000      40.314337500000
       173    1   1.000000       24.708787500000      55.919887500000      50.718037500000
       174    1   1.000000       24.708787500000      55.919887500000      61.121737500000
       175    1   1.000000       24.708787500000      55.919887500000      71.525437500000
       176    1   1.000000       24.708787500000      55.919887500000      81.929137500000
       177    1   1.000000       24.708787500000      66.323587500000       9.103237500000
       178    1   1.000000       24.708787500000      66.323587500000      19.506937500000
       179    1   1.000000       24.708787500000      66.323587500000      29.910637500000
       180    1   1.000000       24.708787500000      66.323587500000      40.314337500000
       181    1   1.000000       24.708787500000      66.323587500000      50.718037500000
       182    1   1.000000       24.708787500000      66.323587500000      61.121737500000
       183    1   1.000000       24.708787500000      66.323587500000      71.525437500000
       184    1   1.000000       24.708787500000      66.323587500000      81.929137500000
       185    1   1.000000       24.708787500000      76.727287500000       9.103237500000
       186    1   1.000000       24.708787500000      76.727287500000      19.506937500000
       187    1   1.000000       24.708787500000      76.727287500000      29.910637500000
       188    1   1.000000       24.708787500000      76.727287500000      40.314337500000
       189    1   1.000000       24.708787500000      76.727287500000      50.718037500000
       190    1   1.000000       24.708787500000      76.727287500000      61.121737500000
       191    1   1.000000       24.708787500000      76.727287500000      71.525437500000
       192    1   1.000000       24.708787500000      76.727287500000      81.929137500000
       193    1   1.000000       35.112487500000       3.901387500000       9.103237500000
       194    1   1.000000       35.112487500000       3.901387500000      19.506937500000
       195    1   1.000000       35.112487500000       3.901387500000      29.910637500000
       196    1   1.000000       35.112487500000       3.901387500000      40.314337500000
       197    1   1.000000       35.112487500000       3.901387500000      50.718037500000
       198    1   1.000000       35.112487500000       3.901387500000      61.121737500000
       199    1   1.000000       35.112487500000       3.901387500000      71.525437500000
       200    1   1.000000       35.112487500000       3.901387500000      81.929137500000
       201    1   1.000000       35.112487500000      14.305087500000       9.103237500000
       202    1   1.000000       35.112487500000      14.305087500000      19.506937500000
       203    1   1.000000       35.112487500000      14.305087500000      29.910637500000
       204    1   1.000000       35.112487500000      14.305087500000      40.314337500000
       205    1   1.000000       35.112487500000      14.305087500000      50.718037500000
       206    1   1.000000       35.112487500000      14.305087500000      61.121737500000
       207    1   1.000000       35.112487500000      14.305087500000      71.525437500000
       208    1   1.000000       35.112487500000      14.305087500000      81.929137500000
       209    1   1.000000       35.112487500000      24.708787500000       9.103237500000
       210    1   1.000000       35.112487500000      24.708787500000      19.506937500000
       211    1   1.000000       35.112487500000      24.708787500000      29.910637500000
       212    1   1.000000       35.112487500000      24.708787500000      40.314337500000
       213    1   1.000000       35.112487500000      24.708787500000      50.718037500000
       214    1   1.000000       35.112487500000      24.708787500000      61.121737500000
       215    1   1.000000       35.112487500000      24.708787500000      71.525437500000
       216    1   1.000000       35.112487500000      24.708787500000      81.929137500000
       217    1   1.000000       35.112487500000      35.112487500000       9.103237500000
       218    1   1.000000       35.112487500000      35.112487500000      19.506937500000
       219    1   1.000000       35.112487500000      35.112487500000      29.910637500000
       220    1   1.000000       35.112487500000      35.112487500000      40.314337500000
       221    1   1.000000       35.112487500000      35.112487500000      50.718037500000
       222    1   1.000000       35.112487500000      35.112487500000      61.121737500000
       223    1   1.000000       35.112487500000      35.112487500000      71.525437500000
       224    1   1.000000       35.112487500000      35.112487500000      81.929137500000
       225    1   1.000000       35.112487500000      45.516187500000       9.103237500000
       226    1   1.000000       35.112487500000      45.516187500000      19.506937500000
       227    1   1.000000       35.112487500000      45.516187500000      29.910637500000
       228    1   1.000000       35.112487500000      45.516187500000      40.314337500000
       229    1   1.000000       35.112487500000      45.516187500000      50.718037500000
       230    1   1.000000       35.112487500000      45.516187500000      61.121737500000
       231    1   1.000000       35.112487500000      45.516187500000      71.525437500000
       232    1   1.000000       35.112487500000      45.516187500000      81.929137500000
       233    1   1.000000       35.112487500000      55.919887500000       9.103237500000
       234    1   1.000000       35.112487500000      55.919887500000      19.506937500000
       235    1   1.000000       35.112487500000      55.919887500000      29.910637500000
       236    1   1.000000       35.112487500000      55.919887500000      40.314337500000
       237    1   1.000000       35.112487500000      55.919887500000      50.718037500000
       238    1   1.000000       35.112487500000      55.919887500000      61.121737500000
       239    1   1.000000       35.112487500000      55.919887500000      71.525437500000
       240    1   1.000000       35.112487500000      55.919887500000      81.929137500000
       241    1   1.000000       35.112487500000      66.323587500000       9.103237500000
       242    1   1.000000       35.112487500000      66.323587500000      19.506937500000
       243    1   1.000000       35.112487500000      66.323587500000      29.910637500000
       244    1   1.000000       35.112487500000      66.323587500000      40.314337500000
       245    1   1.000000       35.112487500000      66.323587500000      50.718037500000
       246    1   1.000000       35.112487500000      66.323587500000      61.121737500000
       247    1   1.000000       35.112487500000      66.323587500000      71.525437500000
       248    1   1.000000       35.112487500000      66.323587500000      81.929137500000
       249    1   1.000000       35.112487500000      76.727287500000       9.103237500000
       250    1   1.000000       35.112487500000      76.727287500000      19.506937500000
       251    1   1.000000       35.112487500000      76.727287500000      29.910637500000
       252    1   1.000000       35.112487500000      76.727287500000      40.314337500000
       253    1   1.000000       35.112487500000      76.727287500000      50.718037500000
       254    1   1.000000       35.112487500000      76.727287500000      61.121737500000
       255    1   1.000000       35.112487500000      76.727287500000      71.525437500000
       256    1   1.000000       35.112487500000      76.727287500000      81.929137500000
       257    1   1.000000       45.516187500000       3.901387500000       9.103237500000
       258    1   1.000000       45.516187500000       3.901387500000      19.506937500000
       259    1   1.000000       45.516187500000       3.901387500000      29.910637500000
       260    1   1.000000       45.516187500000       3.901387500000      40.314337500000
       261    1   1.000000       45.516187500000       3.901387500000      50.718037500000
       262    1   1.000000       45.516187500000       3.901387500000      61.121737500000
       263    1   1.000000       45.516187500000       3.901387500000      71.525437500000
       264    1   1.000000       45.516187500000       3.901387500000      81.929137500000
       265    1   1.000000       45.516187500000      14.305087500000       9.103237500000
       266    1   1.000000       45.516187500000      14.305087500000      19.506937500000
       267    1   1.000000       45.516187500000      14.305087500000      29.910637500000
       268    1   1.000000       45.516187500000      14.305087500000      40.314337500000
       269    1   1.000000       45.516187500000      14.305087500000      50.718037500000
       270    1   1.000000       45.516187500000      14.305087500000      61.121737500000
       271    1   1.000000       45.516187500000      14.305087500000      71.525437500000
       272    1   1.000000       45.516187500000      14.305087500000      81.929137500000
       273    1   1.000000       45.516187500000      24.708787500000       9.103237500000
       274    1   1.000000       45.516187500000      24.708787500000      19.506937500000
       275    1   1.000000       45.516187500000      24.708787500000      29.910637500000
       276    1   1.000000       45.516187500000      24.708787500000      40.314337500000
       277    1   1.000000       45.516187500000      24.708787500000      50.718037500000
       278    1   1.000000       45.516187500000      24.708787500000      61.121737500000
       279    1   1.000000       45.516187500000      24.708787500000      71.525437500000
       280    1   1.000000       45.516187500000      24.708787500000      81.929137500000
       281    1   1.000000       45.516187500000      35.112487500000       9.103237500000
       282    1   1.000000       45.516187500000      35.112487500000      19.506937500000
       283    1   1.000000       45.516187500000      35.112487500000      29.910637500000
       284    1   1.000000       45.516187500000      35.112487500000      40.314337500000
       285    1   1.000000       45.516187500000      35.112487500000      50.718037500000
       286    1   1.000000       45.516187500000      35.112487500000      61.121737500000
       287    1   1.000000       45.516187500000      35.112487500000      71.525437500000
       288    1   1.000000       45.516187500000      35.112487500000      81.929137500000
       289    1   1.000000       45.516187500000      45.516187500000       9.103237500000
       290    1   1.000000       45.516187500000      45.516187500000      19.506937500000
       291    1   1.000000       45.516187500000      45.516187500000      29.910637500000
       292    1   1.000000       45.516187500000      45.516187500000      40.314337500000
       293    1   1.000000       45.516187500000      45.516187500000      50.718037500000
       294    1   1.000000       45.516187500000      45.516187500000      61.121737500000
       295    1   1.000000       45.516187500000      45.516187500000      71.525437500000
       296    1   1.000000       45.516187500000      45.516187500000      81.929137500000
       297    1   1.000000       45.516187500000      55.919887500000       9.103237500000
       298    1   1.000000       45.516187500000      55.919887500000      19.506937500000
       299    1   1.000000       45.516187500000      55.919887500000      29.910637500000
       300    1   1.000000       45.516187500000      55.919887500000      40.314337500000
       301    1   1.000000       45.516187500000      55.919887500000      50.718037500000
       302    1   1.000000       45.516187500000      55.919887500000      61.121737500000
       303    1   1.000000       45.516187500000      55.919887500000      71.525437500000
       304    1   1.000000       45.516187500000      55.919887500000      81.929137500000
       305    1   1.000000       45.516187500000      66.323587500000       9.103237500000
       306    1   1.000000       45.516187500000      66.323587500000      19.506937500000
       307    1   1.000000       45.516187500000      66.323587500000      29.910637500000
       308    1   1.000000       45.516187500000      66.323587500000      40.314337500000
       309    1   1.000000       45.516187500000      66.323587500000      50.718037500000
       310    1   1.000000       45.516187500000      66.323587500000      61.121737500000
       311    1   1.000000       45.516187500000      66.323587500000      71.525437500000
       312    1   1.000000       45.516187500000      66.323587500000      81.929137500000
       313    1   1.000000       45.516187500000      76.727287500000       9.103237500000
       314    1   1.000000       45.516187500000      76.727287500000      19.506937500000
       315    1   1.000000       45.516187500000      76.727287500000      29.910637500000
       316    1   1.000000       45.516187500000      76.727287500000      40.314337500000
       317    1   1.000000       45.516187500000      76.727287500000      50.718037500000
       318    1   1.000000       45.516187500000      76.727287500000      61.121737500000
       319    1   1.000000       45.516187500000      76.727287500000      71.525437500000
       320    1   1.000000       45.516187500000      76.727287500000      81.929137500000
       321    1   1.000000       55.919887500000       3.901387500000       9.103237500000
       322    1   1.000000       55.919887500000       3.901387500000      19.506937500000
       323    1   1.000000       55.919887500000       3.901387500000      29.910637500000
       324    1   1.000000       55.919887500000       3.901387500000      40.314337500000
       325    1   1.000000       55.919887500000       3.901387500000      50.718037500000