 # Na512 Cl512
 
        1024  atoms
           2  atom types
 
      0.000000000000      32.197083360000  xlo xhi
      0.000000000000      27.883492117525  ylo yhi
      0.000000000000      26.288808479285  zlo zhi
