 # Li17 Sc5 Cl32
 
          54  atoms
           3  atom types
 
      0.000000000000      10.403700000000  xlo xhi
      0.000000000000      10.403700000000  ylo yhi
      0.000000000000      10.403700000000  zlo zhi
 
Masses
 
            1   6.94000000              # Li
            2   44.95591200             # Sc
            3   35.45000000             # Cl
 
Atoms # charge
 
         1    1   1.000000        3.901387500000       3.901387500000       9.103237500000
         2    1   1.000000        2.600925000000       7.802775000000       5.201850000000
         3    1   1.000000        0.000000000000       7.802775000000       7.802775000000
         4    1   1.000000        7.802775000000       5.201850000000       2.600925000000
         5    1   1.000000        5.201850000000       0.000000000000       5.201850000000
         6    1   1.000000        1.300462500000       9.103237500000       1.300462500000
         7    1   1.000000        5.201850000000       5.201850000000       5.201850000000
         8    1   1.000000        5.201850000000       7.802775000000       7.802775000000
         9    1   1.000000        2.600925000000       7.802775000000       0.000000000000
        10    1   1.000000        2.600925000000       2.600925000000       5.201850000000
        11    1   1.000000        7.802775000000       2.600925000000       0.000000000000
        12    1   1.000000        5.201850000000       2.600925000000       2.600925000000
        13    1   1.000000        0.000000000000       7.802775000000       2.600925000000
        14    1   1.000000        7.802775000000       7.802775000000       5.201850000000
        15    1   1.000000        2.600925000000       0.000000000000       7.802775000000
        16    1   1.000000        0.000000000000       5.201850000000       0.000000000000
        17    1   1.000000        0.000000000000       0.000000000000       5.201850000000
        18    2   3.000000        2.600925000000       5.201850000000       2.600925000000
        19    2   3.000000        7.802775000000       5.201850000000       7.802775000000
        20    2   3.000000        0.000000000000       2.600925000000       7.802775000000
        21    2   3.000000        5.201850000000       0.000000000000       0.000000000000
        22    2   3.000000        7.802775000000       0.000000000000       2.600925000000
        23    3  -1.000000        2.600925000000       2.600925000000       2.600925000000
        24    3  -1.000000        7.802775000000       5.201850000000       5.201850000000
        25    3  -1.000000        5.201850000000       0.000000000000       7.802775000000
        26    3  -1.000000        0.000000000000       7.802775000000       0.000000000000
        27    3  -1.000000        2.600925000000       0.000000000000       0.000000000000
        28    3  -1.000000        7.802775000000       7.802775000000       7.802775000000
        29    3  -1.000000        5.201850000000       2.600925000000       5.201850000000
        30    3  -1.000000        0.000000000000       5.201850000000       2.600925000000
        31    3  -1.000000        5.201850000000       7.802775000000       5.201850000000
        32    3  -1.000000        7.802775000000       5.201850000000       0.000000000000
        33    3  -1.000000        0.000000000000       0.000000000000       7.802775000000
        34    3  -1.000000        0.000000000000       2.600925000000       0.000000000000
        35    3  -1.000000        5.201850000000       5.201850000000       2.600925000000
        36    3  -1.000000        2.600925000000       0.000000000000       5.201850000000
        37    3  -1.000000        2.600925000000       7.802775000000       7.802775000000
        38    3  -1.000000        5.201850000000       0.000000000000       2.600925000000
        39    3  -1.000000        7.802775000000       2.600925000000       2.600925000000
        40    3  -1.000000        0.000000000000       5.201850000000       7.802775000000
        41    3  -1.000000        2.600925000000       5.201850000000       5.201850000000
        42    3  -1.000000        7.802775000000       0.000000000000       0.000000000000
        43    3  -1.000000        2.600925000000       5.201850000000       0.000000000000
        44    3  -1.000000        0.000000000000       0.000000000000       2.600925000000
        45    3  -1.000000        5.201850000000       5.201850000000       7.802775000000
        46    3  -1.000000        7.802775000000       0.000000000000       5.201850000000
        47    3  -1.000000        0.000000000000       2.600925000000       5.201850000000
        48    3  -1.000000        5.201850000000       7.802775000000       0.000000000000
        49    3  -1.000000        5.201850000000       2.600925000000       0.000000000000
        50    3  -1.000000        0.000000000000       7.802775000000       5.201850000000
        51    3  -1.000000        7.802775000000       2.600925000000       7.802775000000
        52    3  -1.000000        2.600925000000       7.802775000000       2.600925000000
        53    3  -1.000000        7.802775000000       7.802775000000       2.600925000000
        54    3  -1.000000        2.600925000000       2.600925000000       7.802775000000
