LAMMPS (7 Aug 2019)
  using 1 OpenMP thread(s) per MPI task

# Input written to comply with LAMMPS 2017-08-11 00:00:00

# Atomic Configuration
units           metal
boundary        p p p
box             tilt large
atom_style      charge
read_data       triclinic_9x9x9.lmp
  orthogonal box = (0 0 0) to (93.6333 93.6333 93.6333)
  4 by 5 by 8 MPI processor grid
  reading atoms ...
  39366 atoms
  read_data CPU = 0.0672081 secs
group           lithium type 1
12393 atoms in group lithium
group           scandium type 2
3645 atoms in group scandium
group           chloride type 3
23328 atoms in group chloride
variable        T1 equal 500
variable        dt equal 0.001

# Potential Setup
pair_style      buck/coul/long 12.0
pair_coeff      * * 0.0 1.0 0.0
pair_coeff      1 1    360.530000  0.161000   0.000000 # Li Li
pair_coeff      1 3    421.040000  0.344000   0.000000 # Li Cl
pair_coeff      3 3   1227.200000  0.321000  14.530000 # Cl Cl
pair_coeff      2 3  12131.350000  0.250700   0.000000 # Sc Cl

kspace_style    pppm 1e-05

# General Setup
timestep        ${dt}
timestep        0.001

# Thermodynamic Information Output
thermo_style    custom step temp epair emol etotal press lx ly lz fmax cpu cpuremain
thermo          1000

# Intial Atom Velocity
velocity        all create ${T1} 713713 dist gaussian rot yes
velocity        all create 500 713713 dist gaussian rot yes

# Stage 0: npt_equilibriation
restart         0
fix             int all npt aniso 1.0 1.0 $(1000*dt) temp ${T1} ${T1} $(100*dt)
fix             int all npt aniso 1.0 1.0 1 temp ${T1} ${T1} $(100*dt)
fix             int all npt aniso 1.0 1.0 1 temp 500 ${T1} $(100*dt)
fix             int all npt aniso 1.0 1.0 1 temp 500 500 $(100*dt)
fix             int all npt aniso 1.0 1.0 1 temp 500 500 0.10000000000000000555
run             50000
PPPM initialization ...
  using 12-bit tables for long-range coulomb (../kspace.cpp:323)
  G vector (1/distance) = 0.264753
  grid = 81 81 81
  stencil order = 5
  estimated absolute RMS force accuracy = 0.000184939
  estimated relative force accuracy = 1.28433e-05
  using double precision MKL FFT
  3d grid and FFT values/proc = 10557 4374
Neighbor list info ...
  update every 1 steps, delay 10 steps, check yes
  max neighbors/atom: 2000, page size: 100000
  master list distance cutoff = 14
  ghost atom cutoff = 14
  binsize = 7, bins = 14 14 14
  1 neighbor lists, perpetual/occasional/extra = 1 0 0
  (1) pair buck/coul/long, perpetual
      attributes: half, newton on
      pair build: half/bin/atomonly/newton
      stencil: half/bin/3d/newton
      bin: standard
Per MPI rank memory allocation (min/avg/max) = 4.13 | 4.213 | 4.586 Mbytes
Step Temp E_pair E_mol TotEng Press Lx Ly Lz Fmax CPU CPULeft 
       0          500   -239308.38            0   -236764.22   -6397.9398      93.6333      93.6333      93.6333    5.7883125            0            0 
    1000    532.34184   -273022.81            0   -270314.08    -113.0451    97.958105    99.804071    99.900689    4.0751652    6.3996868    313.58465 
    2000    494.04567   -273745.08            0   -271231.21    158.48696    97.891954     99.50811    99.799549    3.8079061    13.372355    320.93654 
    3000    505.12483   -273869.71            0   -271299.47   -14.567853    98.080948    99.436451    99.843036    4.1847109    20.146231     315.6243 
    4000    500.25765   -273986.85            0   -271441.38   -29.875747    98.150202    99.259948    99.863801    4.7782196    26.849349    308.76752 
    5000    502.84713   -274041.11            0   -271482.46   -256.62309    98.009714    99.202108    99.792816    4.0093638    33.573949    302.16555 
    6000    500.68167   -274121.31            0   -271573.68   -51.583187    98.070791    99.065876    99.679222     3.799249    40.137163     294.3392 
    7000    499.04347   -274143.46            0   -271604.16    82.069967    97.988842    99.119143    99.631969    4.0398952    46.443579    285.29627 
    8000    501.48039   -274181.29            0    -271629.6   -81.388311    98.106666    98.923205    99.743892    4.6473409    53.492335    280.83476 
    9000    500.08736   -274192.65            0   -271648.04   -30.386662    97.988221    98.899009    99.760126      3.58469    60.093425    273.75894 
   10000    498.86816   -274245.23            0   -271706.82    107.33044    97.904453    98.977243    99.658671    3.7790433    66.655904    266.62362 
   11000    504.34319   -274242.98            0   -271676.72    42.786752    97.795863     99.05052    99.632655    4.3176136    73.483652    260.53295 
   12000    498.46617   -274284.57            0   -271748.22  -0.61669759    97.929482    98.921599    99.585549    5.3659673    79.674197    252.30163 
   13000    500.86773   -274289.08            0    -271740.5    261.31119    97.811361    98.905227    99.663933    4.1551315    85.995831    244.75737 
   14000    496.51524   -274300.04            0   -271773.61    39.268621    97.781566    98.944958    99.648826     3.855305    93.047942    239.26614 
   15000    503.84676   -274337.51            0   -271773.77   -245.53868    97.654804    98.886464    99.723829    3.9777682     99.79802    232.86205 
   16000    500.11686   -274352.68            0   -271807.92    198.70832    97.667033    98.760913     99.56714    3.6472269    106.38455    226.06717 
   17000    501.36984   -274351.97            0   -271800.83   -8.7105101     97.68979    98.791122     99.58768    3.7103711    113.16184    219.66711 
   18000    500.07147   -274356.34            0   -271811.81   -142.45361    97.682427    98.673888    99.645737    3.4968544    119.43299    212.32531 
   19000    499.67702   -274366.13            0   -271823.61    8.5351643    97.630003    98.843562    99.556201    4.4579238    125.75702    205.18251 
   20000    495.80765   -274386.01            0   -271863.18    18.055753    97.611444    98.701731    99.591727    4.0445226    132.69923    199.04884 
   21000    503.14978   -274365.06            0   -271804.87    107.64757    97.511069    98.873943    99.548554    3.7989542    139.45696    192.58343 
   22000    499.35505   -274382.68            0    -271841.8   -232.22627    97.590847    98.850999    99.505838    4.2328119    146.04171    185.87127 
   23000     499.7951   -274394.44            0   -271851.32    226.70995    97.599764    98.723418    99.487117     4.015689    152.78658    179.35816 
   24000    502.90349   -274392.01            0   -271833.07   -276.61935    97.660507    98.756024    99.611093    3.9549133    159.05802    172.31285 
   25000    499.60445   -274410.12            0   -271867.97   -164.91889    97.601248    98.664665    99.541384    3.6838836    165.39828    165.39828 
   26000    498.51364   -274412.32            0   -271875.72    12.096483    97.670433    98.594283    99.548491     3.774102    172.43094    159.16702 
   27000    500.89025   -274409.44            0   -271860.75   -112.57438    97.689964    98.787875    99.455023    3.9782299    179.08625    152.55496 
   28000    499.93864   -274444.99            0   -271901.14    163.82488    97.629631    98.580166    99.455147    4.6183787    185.50589    145.75463 
   29000    500.41659   -274413.28            0      -271867    209.33301    97.587303    98.628055    99.442342     3.758891    192.39851    139.32306 
   30000    503.61885   -274463.06            0   -271900.48    330.73079    97.527926    98.649046    99.389248    3.9102701    198.59283    132.39522 
   31000    500.70324   -274442.91            0   -271895.17    61.033243    97.620348    98.553876    99.369651    3.9833629    204.99809    125.64399 
   32000    501.85855   -274454.78            0   -271901.16    286.22737    97.583562    98.522376    99.331745    4.0228692     212.0344    119.26935 
   33000    498.69712   -274466.86            0   -271929.32   -300.45238    97.488749     98.70557    99.274811    4.3743885    218.79321    112.71166 
   34000    499.14231   -274463.84            0   -271924.04    7.6581545    97.355849    98.797844    99.383441    4.0871944    225.31764    106.03183 
   35000    503.29281   -274465.41            0    -271904.5    90.111641    97.545008    98.653982    99.369656    4.3396777    232.23022    99.527239 
   36000    500.33639   -274471.96            0   -271926.09     130.4847    97.497832     98.63706    99.389365     3.926655    238.40053    92.711318 
   37000    501.34513   -274504.05            0   -271953.04    139.40516     97.51576    98.619284    99.390407    4.4867063    244.71495     85.98093 
   38000    496.10146   -274475.32            0      -271951   -98.471371    97.591974    98.595945    99.388711    4.3526712    251.72904    79.493383 
   39000    500.14802   -274466.63            0   -271921.71    13.892955    97.654165     98.51633    99.318877    3.8642671    258.49305    72.908298 
   40000    498.27796   -274472.71            0   -271937.31    28.220164     97.59338    98.601512      99.4804     3.963519    264.92752    66.231879 
   41000    501.14987   -274484.77            0   -271934.76    141.83976     97.69517    98.597799    99.254374    4.9320827    271.74192    59.650665 
   42000    500.58825   -274490.11            0   -271942.95   -358.27882    97.708163    98.579122    99.331853    4.0427929    277.96973    52.946615 
   43000    497.64629   -274475.33            0   -271943.15   -233.94286    97.694871    98.527504     99.45357    3.4324027    284.17623    46.261246 
   44000    503.35977    -274493.6            0   -271932.34    7.5736952    97.676086    98.553948    99.268228    4.6685159       291.06        39.69 
   45000    501.71792    -274495.7            0    -271942.8    -276.3663    97.733811    98.557888    99.318617    4.0476908    298.06374    33.118194 
   46000    500.24979   -274509.85            0   -271964.42    74.199767    97.607143    98.536047     99.33266    4.2693796    304.39956    26.469527 
   47000    500.68591   -274474.91            0   -271927.26    48.081515    97.689229    98.600369    99.120973    3.8201949    311.42627    19.878273 
   48000      499.524   -274503.95            0   -271962.21    33.873694    97.847231    98.498245    99.238282    3.7671301    317.63204    13.234668 
   49000    497.56369   -274509.12            0   -271977.35   -220.29405    97.737223    98.397291    99.393377    4.1912555    323.82082    6.6085881 
   50000    499.39012   -274513.21            0   -271972.15   -57.626399    97.693894    98.410811    99.385805     3.729849    330.81934            0 
Loop time of 330.819 on 160 procs for 50000 steps with 39366 atoms

Performance: 13.058 ns/day, 1.838 hours/ns, 151.140 timesteps/s
98.9% CPU use with 160 MPI tasks x 1 OpenMP threads

MPI task timing breakdown:
Section |  min time  |  avg time  |  max time  |%varavg| %total
---------------------------------------------------------------
Pair    | 68.252     | 75.179     | 83.6       |  34.7 | 22.72
Kspace  | 178.07     | 186.68     | 193.97     |  22.7 | 56.43
Neigh   | 2.0056     | 2.1354     | 2.263      |   3.8 |  0.65
Comm    | 29.418     | 30.959     | 31.77      |   7.7 |  9.36
Output  | 0.0032997  | 0.0033386  | 0.0046115  |   0.2 |  0.00
Modify  | 25.997     | 27.318     | 33.045     |  22.8 |  8.26
Other   |            | 8.546      |            |       |  2.58

Nlocal:    246.037 ave 262 max 230 min
Histogram: 4 7 19 23 22 35 19 18 9 4
Nghost:    3920.43 ave 3982 max 3863 min
Histogram: 4 14 16 21 35 25 21 11 8 5
Neighs:    58146.1 ave 63801 max 51496 min
Histogram: 2 8 13 21 23 27 25 23 14 4

Total # of neighbors = 9303381
Ave neighs/atom = 236.33
Neighbor list builds = 1683
Dangerous builds = 7

# Stage 1: nvt_equilibriation
unfix           int
restart         0
fix             int all nvt temp ${T1} ${T1} $(100*dt)
fix             int all nvt temp 500 ${T1} $(100*dt)
fix             int all nvt temp 500 500 $(100*dt)
fix             int all nvt temp 500 500 0.10000000000000000555
run             6000000
PPPM initialization ...
  using 12-bit tables for long-range coulomb (../kspace.cpp:323)
  G vector (1/distance) = 0.267217
  grid = 90 90 90
  stencil order = 5
  estimated absolute RMS force accuracy = 0.000137157
  estimated relative force accuracy = 9.52505e-06
  using double precision MKL FFT
  3d grid and FFT values/proc = 13050 4968
Per MPI rank memory allocation (min/avg/max) = 4.365 | 4.473 | 4.83 Mbytes
Step Temp E_pair E_mol TotEng Press Lx Ly Lz Fmax CPU CPULeft 
   50000    499.39012    -274513.3            0   -271972.24   -58.729153    97.693894    98.410811    99.385805    3.7301181            0            0 
   51000    498.81404   -274515.71            0   -271977.58   -272.40888    97.693894    98.410811    99.385805    4.1234975    7.1541681     42917.86 
   52000    502.14719   -274515.49            0    -271960.4    63.077262    97.693894    98.410811    99.385805    4.0873959    13.679888    41025.987 
   53000    498.83024   -274524.46            0   -271986.25    143.75168    97.693894    98.410811    99.385805    3.8048318    20.629579     41238.53 
   54000    501.69536   -274504.72            0   -271951.93   -281.95716    97.693894    98.410811    99.385805    3.5720261    26.985449     40451.19 
   55000    497.83532    -274532.6            0   -271999.45   -112.33433    97.693894    98.410811    99.385805    4.5568574    33.422395    40073.453 
   56000    500.79465   -274531.25            0   -271983.04    116.59474    97.693894    98.410811    99.385805    4.7517991    40.461657    40421.196 
   57000    497.93814   -274510.75            0   -271977.08    44.417578    97.693894    98.410811    99.385805    4.8313415    47.542534    40703.202 
   58000    498.40874   -274553.56            0    -272017.5   -210.54857    97.693894    98.410811    99.385805    4.4679565    53.995047    40442.291 
   59000    501.76956   -274531.65            0   -271978.48     -36.2301    97.693894    98.410811    99.385805    4.0193478    60.865374    40516.051 
   60000    498.22567   -274539.96            0   -272004.83     75.58533    97.693894    98.410811    99.385805    3.7089302    67.243483    40278.847 
   61000    500.81921   -274536.63            0    -271988.3   -398.15897    97.693894    98.410811    99.385805    4.1272998    73.609641    40077.104 
   62000    497.52474   -274536.33            0   -272004.76   -351.21848    97.693894    98.410811    99.385805    4.7360933    80.658673    40248.678 
   63000    501.61321    -274529.4            0   -271977.03   -149.31869    97.693894    98.410811    99.385805    3.9738123    87.779079    40425.643 
   64000    500.70573   -274538.51            0   -271990.76   -258.69206    97.693894    98.410811    99.385805    4.4925243    94.313906    40325.932 
   65000     499.5542   -274544.42            0   -272002.52   -383.89579    97.693894    98.410811    99.385805    4.1075199    101.17182    40367.555 
   66000    497.94861   -274525.85            0   -271992.12   -231.67425    97.693894    98.410811    99.385805     3.590102    107.64334    40258.611 
   67000    500.87002   -274545.57            0   -271996.98   -437.52222    97.693894    98.410811    99.385805    4.8150196    114.08325    40150.594 
   68000    498.98482   -274537.36            0   -271998.36   -427.84808    97.693894    98.410811    99.385805    4.1812463    121.13741    40257.999 
   69000    500.12512   -274535.27            0   -271990.47   -174.92041    97.693894    98.410811    99.385805    4.6002742     128.1897     40352.77 
   70000    499.04534   -274540.72            0   -272001.41    -190.1131    97.693894    98.410811    99.385805    3.8272338    134.77566    40297.923 
   71000    500.23851   -274556.73            0   -272011.36    -186.8432    97.693894    98.410811    99.385805    4.1661204    141.62748    40323.367 
   72000     500.2158   -274558.32            0   -272013.06   -173.70859    97.693894    98.410811    99.385805    3.9406227    147.94888    40201.747 
   73000    499.21515   -274545.46            0   -272005.29   -258.23382    97.693894    98.410811    99.385805    4.1497923    154.44926    40136.661 
   74000    497.54734   -274548.56            0   -272016.88    -229.9016    97.693894    98.410811    99.385805    3.9624533    161.55826    40228.007 
   75000    502.47641   -274549.36            0    -271992.6   -626.49583    97.693894    98.410811    99.385805    4.1758683    168.50769    40273.339 
   76000    499.82085   -274549.16            0   -272005.91   -430.99631    97.693894    98.410811    99.385805    3.9621549    175.12181    40237.603 
   77000    498.55996    -274568.6            0   -272031.76   -503.24638    97.693894    98.410811    99.385805    3.8419117    181.83166    40225.204 
   78000    505.12824   -274554.87            0   -271984.61    -519.6469    97.693894    98.410811    99.385805    3.8422288    188.20985    40142.472 
   79000    499.79185   -274551.61            0   -272008.51   -359.54887    97.693894    98.410811    99.385805    4.1608876    194.63891     40075.48 
   80000    498.88224    -274584.1            0   -272045.63   -391.43473    97.693894    98.410811    99.385805    5.3623725    201.75705    40149.653 
   81000    498.13425   -274550.85            0   -272016.18    -298.5806    97.693894    98.410811    99.385805    4.1623317    208.76583    40197.523 
   82000    501.46045   -274561.87            0   -272010.27   -239.72583    97.693894    98.410811    99.385805     4.075996    215.40439    40172.919 
   83000    501.33967   -274555.51            0   -272004.53   -373.82171    97.693894    98.410811    99.385805    3.5724734    222.18223    40174.588 
   84000    498.33892   -274566.82            0   -272031.11   -370.59983    97.693894    98.410811    99.385805    3.7523307    228.55418    40104.536 
   85000    495.09851   -274554.24            0   -272035.02   -317.85725    97.693894    98.410811    99.385805    3.8723986    235.00158    40050.984 
   86000    497.58308   -274554.96            0    -272023.1   -379.77029    97.693894    98.410811    99.385805     3.954325     242.1923    40123.191 
   87000    499.06732   -274565.96            0   -272026.55   -406.12304    97.693894    98.410811    99.385805    4.2899539    249.30525    40178.573 
   88000    501.75275   -274553.77            0   -272000.69   -350.81367    97.693894    98.410811    99.385805    4.0400871    255.93887    40155.462 
   89000    502.56203   -274575.18            0   -272017.98   -568.19176    97.693894    98.410811    99.385805    4.4509813    262.65616    40145.984 
   90000    500.99032   -274574.64            0   -272025.43   -7.6041152    97.693894    98.410811    99.385805    3.8433079    268.96169    40075.292 
   91000    501.20956   -274549.34            0   -271999.02   -364.22769    97.693894    98.410811    99.385805    3.7546635    275.36851    40022.462 
   92000    496.86916   -274559.92            0   -272031.68   -171.86913    97.693894    98.410811    99.385805    4.0439101    282.58389    40086.544 
   93000    499.62892    -274561.8            0   -272019.53   -271.77802    97.693894    98.410811    99.385805    3.8084037    289.44148    40097.742 
   94000     499.3121    -274567.1            0   -272026.44    -172.4419    97.693894    98.410811    99.385805    3.9418852     296.1649    40089.957 
   95000    503.65688   -274549.73            0   -271986.96   -170.48342    97.693894    98.410811    99.385805    4.6057834    302.87331    40080.235 
   96000    500.27658   -274567.33            0   -272021.76   -332.43701    97.693894    98.410811    99.385805    3.6180227    309.35894    40041.807 
   97000    500.46496   -274542.49            0   -271995.96   -213.94201    97.693894    98.410811    99.385805    3.6672983    315.86309    40007.085 
   98000    496.70963   -274554.23            0   -272026.81   -289.49286    97.693894    98.410811    99.385805    4.0465168    323.17811    40074.085 
   99000    501.13441   -274562.05            0   -272012.11    -294.8219    97.693894    98.410811    99.385805    3.6967699    329.98014    40075.751 
  100000    501.50127   -274589.62            0   -272037.81    -517.7756    97.693894    98.410811    99.385805    3.8549536    336.80179    40079.413 
  101000     498.9887   -274577.09            0   -272038.07    -510.2438    97.693894    98.410811    99.385805    3.7162454    343.43803    40061.037 
  102000    501.44225   -274569.93            0   -272018.43   -356.73333    97.693894    98.410811    99.385805    3.9052273    349.75291    40006.352 
  103000    501.63708    -274592.9            0   -272040.41   -315.33801    97.693894    98.410811    99.385805    4.2341174    356.19849    39968.159 
  104000    501.43085   -274577.59            0   -272026.14   -234.89706    97.693894    98.410811    99.385805    3.8438046    363.46901    40021.976 
  105000    495.59451   -274575.97            0   -272054.23   -405.30643    97.693894    98.410811    99.385805    3.9553307    370.24721    40020.357 
  106000    502.46056    -274588.1            0   -272031.42   -435.72518    97.693894    98.410811    99.385805    3.7447975    377.00215    40016.086 
  107000    499.24487   -274595.21            0   -272054.89   -36.658982    97.693894    98.410811    99.385805     3.885783    383.51676    39986.669 
  108000    504.34738   -274575.71            0   -272009.43   -160.36957    97.693894    98.410811    99.385805    4.3777871    389.80678    39935.033 
  109000    498.77361   -274594.41            0   -272056.49   -327.39992    97.693894    98.410811    99.385805     3.697342    396.35072    39910.503 
  110000    500.53562   -274597.32            0   -272050.44   -495.65648    97.693894    98.410811    99.385805    3.8708406     403.6657    39962.904 
  111000    502.68445    -274584.2            0   -272026.37   -199.96768    97.693894    98.410811    99.385805    4.1597887    410.17813    39935.212 
  112000    500.20597   -274583.78            0   -272038.56   -335.84212    97.693894    98.410811    99.385805    3.7288898    416.91896    39930.078 
  113000    498.78791   -274598.31            0   -272060.32   -327.54457    97.693894    98.410811    99.385805    4.2204361    423.50053    39909.883 
  114000    497.13603   -274593.56            0   -272063.97   -282.38815    97.693894    98.410811    99.385805    3.9247967    429.84477    39868.102 
  115000    502.27117   -274600.53            0   -272044.81   -419.42647    97.693894    98.410811    99.385805    4.4368689    436.40464    39847.101 
  116000    496.79238   -274583.88            0   -272056.03   -548.31031    97.693894    98.410811    99.385805    3.9248652    443.75278     39897.41 
  117000    499.42504   -274598.33            0   -272057.09   -512.27076    97.693894    98.410811    99.385805    3.7917286    450.21592    39867.628 
  118000    502.71299   -274606.87            0    -272048.9   -439.05908    97.693894    98.410811    99.385805    4.1692546    456.99745    39866.307 
  119000    495.05957   -274599.87            0   -272080.84   -235.96897    97.693894    98.410811    99.385805    3.8590277    463.65681    39854.327 
  120000    502.60518   -274596.72            0    -272039.3    -311.5512    97.693894    98.410811    99.385805    4.4314501    469.99268    39815.094 
  121000    500.69883   -274575.74            0   -272028.02     -332.957    97.693894    98.410811    99.385805    4.1397969    476.60698    39800.039 
  122000    499.72659   -274583.82            0   -272041.05   -568.03722    97.693894    98.410811    99.385805    4.2961418    483.91864    39842.635 
  123000    500.56696    -274602.7            0   -272055.66   -529.83033    97.693894    98.410811    99.385805    4.2071311     490.5425     39828.02 
  124000    496.80981   -274576.89            0   -272048.96   -362.79354    97.693894    98.410811    99.385805    3.7150845    497.36916     39829.86 
  125000    502.17209   -274595.42            0   -272040.21   -328.91498    97.693894    98.410811    99.385805    4.3825431    503.88892    39807.224 
  126000    497.93733   -274614.53            0   -272080.86   -504.74368    97.693894    98.410811    99.385805    3.8776194    510.21205    39769.687 
  127000    499.01547   -274600.81            0   -272061.65   -610.87688    97.693894    98.410811    99.385805    4.5454108    516.82773    39755.463 
  128000     501.4732    -274601.3            0   -272049.64   -410.55216    97.693894    98.410811    99.385805    4.2729599    524.17108    39796.681 
  129000    495.95434   -274617.09            0   -272093.51   -536.73028    97.693894    98.410811    99.385805    4.3111999     530.7406    39778.672 
  130000    498.13908   -274578.84            0   -272044.15    -616.4085    97.693894    98.410811    99.385805    4.6752129    537.55286    39778.912 
  131000    499.81809   -274605.09            0   -272061.85   -446.64691    97.693894    98.410811    99.385805    4.1728219    544.12028    39761.086 
  132000    494.55915   -274579.25            0   -272062.78   -297.76309    97.693894    98.410811    99.385805    3.8796809    550.50138    39730.088 
  133000    502.24329   -274617.88            0    -272062.3   -605.92353    97.693894    98.410811    99.385805    4.0632228    557.13062    39717.372 
  134000    501.30564   -274603.21            0    -272052.4   -354.69903    97.693894    98.410811    99.385805    3.7197401    564.45473    39753.741 
  135000     495.1475   -274606.48            0   -272087.01    -623.1226    97.693894    98.410811    99.385805    4.2872657    570.93648    39730.462 
  136000    499.80562   -274602.26            0   -272059.09   -530.77567    97.693894    98.410811    99.385805    4.3477422    577.73688    39729.487 
  137000    500.31632    -274592.7            0   -272046.93   -497.66962    97.693894    98.410811    99.385805    3.8867262    584.24233    39708.332 
  138000    499.04711   -274600.72            0   -272061.41   -572.75433    97.693894    98.410811    99.385805    3.4728116    590.57005     39675.57 
  139000    497.61734   -274615.23            0   -272083.19   -843.20569    97.693894    98.410811    99.385805    4.1708516    597.22204    39664.938 
  140000    502.38544   -274604.48            0   -272048.18   -700.54794    97.693894    98.410811    99.385805     3.771433    604.54914    39698.727 
  141000    502.06349   -274609.05            0   -272054.39   -833.15562    97.693894    98.410811    99.385805    4.6596462    611.06967    39679.238 
  142000     501.5698   -274617.98            0   -272065.83   -286.05956    97.693894    98.410811    99.385805     3.892216    617.87628    39678.403 
  143000    500.96001   -274572.11            0   -272023.07   -584.41959    97.693894    98.410811    99.385805    3.7463078      624.426    39661.122 
  144000    498.94915   -274606.42            0    -272067.6   -296.37741    97.693894    98.410811    99.385805    4.3666333    630.88153    39638.152 
  145000    498.26203    -274601.5            0   -272066.18   -479.59363    97.693894    98.410811    99.385805    4.1145102    637.53579    39627.883 
  146000    499.74265   -274599.34            0   -272056.49   -370.20917    97.693894    98.410811    99.385805     3.736779    644.91875    39662.503 
  147000    499.22378   -274599.32            0   -272059.11   -301.30976    97.693894    98.410811    99.385805    4.3449031    651.32317    39636.708 
  148000    502.99123   -274591.57            0   -272032.19   -545.47228    97.693894    98.410811    99.385805    4.0545872     658.2597    39643.354 
  149000    499.66338   -274616.19            0   -272073.74   -607.67583    97.693894    98.410811    99.385805    4.2419968    664.83871    39628.416 
  150000    501.13046   -274607.74            0   -272057.83   -555.78251    97.693894    98.410811    99.385805    4.1488423    671.13831     39597.16 
  151000    501.80721   -274624.23            0   -272070.87    -454.1908    97.693894    98.410811    99.385805    4.0582808    677.76025    39585.225 
  152000    498.11034    -274601.5            0   -272066.96   -607.39709    97.693894    98.410811    99.385805    4.5418672    685.12447    39616.315 
  153000     503.4853   -274627.65            0   -272065.75   -670.39473    97.693894    98.410811    99.385805    3.8458503    691.43155    39586.134 
  154000    498.22425   -274612.74            0   -272077.61   -709.83201    97.693894    98.410811    99.385805    4.1634984    698.23244    39584.408 
  155000    502.36869   -274610.44            0   -272054.22   -466.21656    97.693894    98.410811    99.385805    4.5719186    704.76659     39567.61 
  156000    500.00072    -274634.8            0   -272090.64   -561.64745    97.693894    98.410811    99.385805    3.9002099    711.07323    39538.355 
  157000    500.45993   -274609.03            0   -272062.52   -832.76564    97.693894    98.410811    99.385805    3.9496434    717.74552    39529.667 
  158000    501.27285   -274649.29            0   -272098.65   -671.89357    97.693894    98.410811    99.385805    3.9868505    725.17351    39562.244 
  159000    499.68356   -274614.12            0   -272071.57   -685.56159    97.693894    98.410811    99.385805    4.0024592    731.56332    39537.977 
  160000    501.57286   -274609.25            0   -272057.09   -470.20957    97.693894    98.410811    99.385805    3.9241227    738.52808    39544.822 
  161000    499.69352   -274619.85            0   -272077.25   -445.88598    97.693894    98.410811    99.385805      4.00428    745.03625    39527.194 
  162000    502.17936   -274600.89            0   -272045.64   -683.62078    97.693894    98.410811    99.385805    3.7227258    751.40168     39502.26 
  163000    499.58824   -274625.96            0   -272083.89   -510.71502    97.693894    98.410811    99.385805    4.1853071    758.12613    39496.359 
  164000    501.03237   -274615.53            0   -272066.11   -596.59622    97.693894    98.410811    99.385805    3.7243606    765.47439    39522.651 
  165000    505.60966   -274612.52            0   -272039.81    -451.2011    97.693894    98.410811    99.385805    3.8095751    771.85646    39498.915 
  166000    499.47616   -274633.09            0   -272091.59   -656.42179    97.693894    98.410811    99.385805    4.2902155    778.74427    39501.132 
  167000    503.91551   -274608.18            0    -272044.1   -492.06272    97.693894    98.410811    99.385805    4.4074704    785.15399    39479.153 
  168000    497.27729   -274618.42            0   -272088.11   -539.43359    97.693894    98.410811    99.385805    5.6383917    791.52253    39455.386 
  169000    496.13031   -274618.97            0    -272094.5   -455.99551    97.693894    98.410811    99.385805    4.4340095    798.18329    39446.352 
  170000    502.98966   -274600.39            0   -272041.01   -519.69742    97.693894    98.410811    99.385805    3.8642003    805.57766    39473.305 
  171000    496.13111   -274643.78            0    -272119.3   -306.16679    97.693894    98.410811    99.385805    3.8444894    811.98282    39451.628 
  172000    500.85338   -274620.88            0   -272072.38   -262.08136    97.693894    98.410811    99.385805    3.6799412    818.80824    39450.449 
  173000    499.68714   -274590.82            0   -272048.24   -535.37948    97.693894    98.410811    99.385805    4.3042733    825.24385    39430.554 
  174000    499.96016   -274599.59            0   -272055.63   -749.74336    97.693894    98.410811    99.385805    3.8517864    831.57635    39405.989 
  175000     499.9154   -274619.16            0   -272075.43   -644.80268    97.693894    98.410811    99.385805    3.9743393    838.24654    39397.587 
  176000    498.40243   -274591.29            0   -272055.26   -423.52104    97.693894    98.410811    99.385805    4.0598652    845.61311    39421.678 
  177000     498.9682    -274615.3            0   -272076.39   -558.36864    97.693894    98.410811    99.385805    3.9173499      852.221    39410.188 
  178000    497.03731   -274612.79            0   -272083.71   -551.52995    97.693894    98.410811    99.385805    3.7978232    859.11638    39411.964 
  179000    503.91741   -274619.28            0   -272055.18   -653.66033    97.693894    98.410811    99.385805    4.1723863     865.4731     39389.09 
  180000    499.70179   -274629.72            0   -272087.08   -526.36024    97.693894    98.410811    99.385805    4.1757953    871.76581    39363.579 
  181000    501.14772   -274611.41            0   -272061.41   -515.91125    97.693894    98.410811    99.385805    4.4205137    878.53551    39359.732 
  182000    500.84245   -274630.13            0   -272081.69   -639.22173    97.693894    98.410811    99.385805    3.9503299    885.87999    39381.392 
  183000    499.54451   -274628.47            0   -272086.62   -682.29959    97.693894    98.410811    99.385805    4.1291842    892.15069    39355.249 
  184000      500.271   -274618.46            0   -272072.91   -791.25824    97.693894    98.410811    99.385805    3.5743431     899.0391    39356.443 
  185000    503.66443   -274624.24            0   -272061.43   -474.52348    97.693894    98.410811    99.385805    4.6612478    905.49581    39338.762 
  186000    495.71657   -274618.59            0   -272096.22   -518.07701    97.693894    98.410811    99.385805    3.4938537    911.80509     39314.89 
  187000    498.77846   -274607.99            0   -272070.04   -552.06024    97.693894    98.410811    99.385805    4.6505266    918.49943    39307.753 
  188000    496.17016   -274639.72            0   -272115.04   -572.01537    97.693894    98.410811    99.385805    3.7073259    925.86004    39328.925 
  189000    497.00166   -274640.81            0    -272111.9   -513.89087    97.693894    98.410811    99.385805    4.3933799    932.16122    39305.014 
  190000    501.33061    -274626.7            0   -272075.77   -942.14255    97.693894    98.410811    99.385805    4.2931979    939.06932    39306.759 
  191000    499.24065   -274621.98            0   -272081.68   -593.76149    97.693894    98.410811    99.385805    3.6227883     945.4077    39284.707 
  192000    499.05305   -274604.88            0   -272065.54   -618.20771    97.693894    98.410811    99.385805    4.8852854    951.69663    39260.837 
  193000    498.54705   -274616.28            0   -272079.51   -486.47112    97.693894    98.410811    99.385805    4.6917791    958.38357    39253.514 
  194000    502.87607   -274614.75            0   -272055.96   -708.47056    97.693894    98.410811    99.385805    4.3010124    965.70908    39272.169 
  195000    500.07843   -274620.84            0   -272076.28   -815.61585    97.693894    98.410811    99.385805    3.8118055    972.11395    39253.291 
  196000    502.29006   -274633.57            0   -272077.75   -573.21278    97.693894    98.410811    99.385805      4.48382    979.03321    39255.208 
  197000    503.85995   -274632.03            0   -272068.23   -663.77942    97.693894    98.410811    99.385805    4.1726471    985.42676    39236.074 
  198000    499.45625   -274636.86            0   -272095.46   -313.07875    97.693894    98.410811    99.385805    4.3005424    991.73289    39213.655 
  199000    499.89866   -274616.89            0   -272073.24   -608.55298    97.693894    98.410811    99.385805    4.2444118    998.54226    39211.213 
  200000    496.65578   -274641.57            0   -272114.42   -794.28666    97.693894    98.410811    99.385805    3.9835709    1005.8795    39229.301 
  201000    499.45997    -274629.5            0   -272088.09   -612.34061    97.693894    98.410811    99.385805    3.7588125    1012.2749     39210.57 
  202000    501.98041   -274616.64            0    -272062.4   -802.76016    97.693894    98.410811    99.385805    4.8273975    1019.1744    39211.392 
  203000    500.30498   -274622.45            0   -272076.74   -670.93015    97.693894    98.410811    99.385805     3.950794    1025.4926    39189.902 
  204000    492.80094   -274634.15            0   -272126.62   -644.75243    97.693894    98.410811    99.385805    4.1212278    1031.8046    39168.373 
  205000    498.78087   -274636.61            0   -272098.65    -695.5222    97.693894    98.410811    99.385805    4.8031689    1038.6042    39165.428 
  206000     502.0495   -274631.66            0   -272077.07   -604.84375    97.693894    98.410811    99.385805    4.1734951    1045.9562    39183.129 
  207000    498.74513   -274657.58            0    -272119.8    -683.2918    97.693894    98.410811    99.385805     4.807561    1052.2484    39161.067 
  208000    499.85902   -274644.77            0   -272101.33   -741.22538    97.693894    98.410811    99.385805    4.0400032     1059.311     39167.69 
  209000    507.92527   -274626.45            0   -272041.96    -696.8286    97.693894    98.410811    99.385805    3.9617647    1065.6878    39148.947 
  210000    500.48809   -274644.65            0   -272098.01    -672.1991    97.693894    98.410811    99.385805    4.7713731    1071.9819     39127.34 
  211000    503.19039   -274635.32            0   -272074.93   -778.55053    97.693894    98.410811    99.385805    4.1806178    1078.7814    39124.251 
  212000    497.49175   -274641.62            0   -272110.22   -784.81907    97.693894    98.410811    99.385805    3.8466554    1086.0352    39137.489 
  213000     501.2426   -274651.11            0   -272100.62   -487.40499    97.693894    98.410811    99.385805    3.7569014    1092.3945    39118.446 
  214000    501.27296   -274627.91            0   -272077.27   -579.89201    97.693894    98.410811    99.385805    3.7522548    1099.2617    39117.631 
  215000    501.13346    -274612.4            0   -272062.47   -850.15797    97.693894    98.410811    99.385805    4.5396328    1105.6394    39099.431 
  216000    501.69628   -274628.06            0   -272075.27   -833.34841    97.693894    98.410811    99.385805    3.8032493    1111.9474    39078.922 
  217000    498.88103    -274642.6            0   -272104.13   -562.86534    97.693894    98.410811    99.385805    4.8533857    1118.7257    39075.011 
  218000    501.31085   -274630.61            0   -272079.78   -664.69325    97.693894    98.410811    99.385805    4.0098262    1126.0062    39088.499 
  219000    501.76351   -274661.94            0   -272108.81   -812.54211    97.693894    98.410811    99.385805    4.2315656    1132.3894    39070.784 
  220000     500.9465   -274650.66            0   -272101.68   -998.76701    97.693894    98.410811    99.385805    4.8133361    1139.3034    39071.405 
  221000    499.61962   -274632.65            0   -272090.42    -643.7411    97.693894    98.410811    99.385805    3.9038851    1145.7059      39054.5 
  222000    497.76599   -274637.97            0   -272105.17    -598.0197    97.693894    98.410811    99.385805    4.0242209    1152.0196    39034.711 
  223000    501.12231   -274642.16            0   -272092.29    -696.5789    97.693894    98.410811    99.385805     3.728387    1158.8233    39031.579 
  224000    502.10536   -274632.13            0   -272077.25   -658.04502    97.693894    98.410811    99.385805    3.5401659    1166.1195    39044.899 
  225000    502.54123   -274641.62            0   -272084.53   -739.65801    97.693894    98.410811    99.385805    3.9990848    1172.4591    39026.139 
  226000    501.23619   -274643.97            0   -272093.52   -318.84214    97.693894    98.410811    99.385805    4.1995037    1179.3812    39026.796 
  227000    498.69776   -274655.95            0   -272118.42   -531.13762    97.693894    98.410811    99.385805    4.1846783    1185.7103    39007.858 
  228000    504.31654   -274648.02            0   -272081.89   -581.79935    97.693894    98.410811    99.385805    4.0379248    1192.0168    38988.323 
  229000     500.5175   -274649.64            0   -272102.84   -690.07898    97.693894    98.410811    99.385805    4.1589959    1198.7906    38984.135 
  230000    498.16828   -274635.32            0   -272100.48    -838.4467    97.693894    98.410811    99.385805    3.9466805     1206.105    38997.394 
  231000    502.15007   -274638.97            0   -272083.87   -798.98342    97.693894    98.410811    99.385805    3.8174474    1212.5548    38982.631 
  232000    499.14325   -274621.31            0   -272081.51   -687.32215    97.693894    98.410811    99.385805    4.0192225    1219.4182    38981.182 
  233000    501.24157   -274657.45            0   -272106.97   -730.25925    97.693894    98.410811    99.385805    4.0233132    1225.8751    38966.752 
  234000    498.68364   -274616.29            0   -272078.83   -813.60344    97.693894    98.410811    99.385805    4.1348391    1232.1401    38946.343 
  235000    500.14447   -274638.06            0   -272093.16   -528.75384    97.693894    98.410811    99.385805    4.3044654    1238.9778    38944.087 
  236000    501.49552   -274668.69            0   -272116.92    -787.9016    97.693894    98.410811    99.385805    3.9002941    1246.2508    38955.387 
  237000    499.09154   -274648.24            0    -272108.7   -770.75879    97.693894    98.410811    99.385805    3.7888964    1252.6344    38938.844 
  238000    499.07634   -274629.27            0   -272089.81   -679.33476    97.693894    98.410811    99.385805     3.889113    1259.5285     38938.19 
  239000    497.23226   -274624.24            0   -272094.16   -789.84658    97.693894    98.410811    99.385805     4.067743    1265.9271    38922.236 
  240000    501.64445   -274658.39            0   -272105.86   -870.93071    97.693894    98.410811    99.385805    5.2442278    1272.2152    38903.002 
  241000    497.69638   -274651.39            0   -272118.95   -817.51565    97.693894    98.410811    99.385805    4.5276468    1278.9656    38897.965 
  242000    499.22104   -274656.18            0   -272115.98   -767.49648    97.693894    98.410811    99.385805    3.9176732    1286.2561    38909.248 
  243000    499.01315   -274651.36            0   -272112.22   -633.83523    97.693894    98.410811    99.385805    3.5947085     1292.676    38894.141 
  244000    501.45411   -274629.71            0   -272078.15   -794.86563    97.693894    98.410811    99.385805    4.2406042    1299.5167    38891.722 
  245000    500.51702   -274651.48            0   -272104.68    -584.9109    97.693894    98.410811    99.385805    4.5355349    1305.8335    38873.658 
  246000    504.73369   -274631.47            0   -272063.22   -425.87906    97.693894    98.410811    99.385805    4.0419222    1312.1635    38856.108 
  247000    498.61361   -274634.25            0   -272097.15   -715.03351    97.693894    98.410811    99.385805    3.9081182    1318.9229    38851.319 
  248000     502.4871   -274647.64            0   -272090.82   -687.10508    97.693894    98.410811    99.385805    4.4571521    1326.2568    38863.344 
  249000     499.3928   -274657.64            0   -272116.57   -554.19896    97.693894    98.410811    99.385805    3.7913285    1332.6078    38846.521 
  250000    500.38815   -274652.72            0   -272106.59   -558.84736    97.693894    98.410811    99.385805    3.7241573     1339.492    38845.269 
  251000    498.17413   -274670.08            0   -272135.21   -813.04822    97.693894    98.410811    99.385805    3.8004317    1345.8618    38829.116 
  252000    500.93051   -274633.33            0   -272084.44   -619.98311    97.693894    98.410811    99.385805    4.2555009    1352.1147    38809.707 
  253000    500.86698   -274654.53            0   -272105.96   -883.22207    97.693894    98.410811    99.385805    3.9029595    1358.8659    38804.657 
  254000    500.90412   -274637.14            0   -272088.38   -758.82608    97.693894    98.410811    99.385805    4.4524478    1366.2012    38816.188 
  255000    497.92496      -274642            0    -272108.4    -1051.936    97.693894    98.410811    99.385805     3.861087    1372.6038    38801.167 
  256000    499.85512   -274637.07            0   -272093.65   -673.67788    97.693894    98.410811    99.385805     4.414784    1379.4609    38799.011 
  257000    499.25645   -274644.84            0   -272104.47   -765.77461    97.693894    98.410811    99.385805    4.1171431    1385.8545    38783.842 
  258000    500.45452   -274655.05            0   -272108.57   -709.52375    97.693894    98.410811    99.385805    4.6219849    1392.0701    38763.797 
  259000    504.81557    -274645.2            0   -272076.53   -828.49134    97.693894    98.410811    99.385805    4.1838938    1398.8551    38759.664 
  260000    502.47734   -274666.38            0   -272109.61   -910.18218    97.693894    98.410811    99.385805    4.3288253    1406.2437    38772.148 
  261000    499.93862   -274654.17            0   -272110.32   -643.38135    97.693894    98.410811    99.385805    4.7236592    1412.7214    38759.451 
  262000    500.30568    -274636.5            0   -272090.78   -760.04629    97.693894    98.410811    99.385805    4.1443427    1419.6006    38757.775 
  263000    498.07779   -274649.31            0   -272114.93   -728.52933    97.693894    98.410811    99.385805    4.1309608    1425.9079    38740.511 
  264000    500.76905   -274667.28            0   -272119.21   -749.42068    97.693894    98.410811    99.385805    4.0718006    1432.2005    38722.953 
  265000    500.06037   -274643.46            0   -272098.99   -692.05862    97.693894    98.410811    99.385805     3.937361    1438.9629    38718.141 
  266000     502.8627   -274642.42            0   -272083.69   -749.14829    97.693894    98.410811    99.385805    4.0914271      1446.35     38730.04 
  267000    500.70815   -274641.03            0   -272093.26   -863.76455    97.693894    98.410811    99.385805    4.2463677    1452.9951    38721.985 
  268000    500.01259   -274631.99            0   -272087.76   -658.94953    97.693894    98.410811    99.385805    3.8232267     1459.922    38721.418 
  269000    499.49474   -274656.11            0   -272114.52   -600.35191    97.693894    98.410811    99.385805    3.7614239     1466.193    38703.478 
  270000    499.95254   -274654.82            0    -272110.9    -556.4474    97.693894    98.410811    99.385805    4.3155751    1472.5122    38686.911 
  271000    504.32964   -274652.46            0   -272086.27   -583.78621    97.693894    98.410811    99.385805    4.5745536    1479.4254    38685.969 
  272000    501.38909   -274635.57            0   -272084.34   -787.93329    97.693894    98.410811    99.385805    3.7774745    1486.7215    38694.942 
  273000    499.10999   -274656.85            0   -272117.22    -731.0587    97.693894    98.410811    99.385805    4.0768997    1493.1124    38680.315 
  274000    499.44147   -274664.01            0   -272122.69   -609.08639    97.693894    98.410811    99.385805    4.3159476    1499.9996     38678.56 
  275000    497.49593   -274642.71            0   -272111.28   -790.77153    97.693894    98.410811    99.385805    3.7751098    1506.3325    38662.534 
  276000    501.73764   -274643.37            0   -272090.36   -474.79252    97.693894    98.410811    99.385805      3.78075    1512.6464    38646.109 
  277000    502.20441   -274647.84            0   -272092.46   -671.77114    97.693894    98.410811    99.385805    4.1517978    1519.5792     38645.51 
  278000    499.56099   -274646.69            0   -272104.76    -858.6327    97.693894    98.410811    99.385805    4.1366753    1526.8756    38654.062 
  279000    501.15789   -274643.55            0    -272093.5   -753.93328    97.693894    98.410811    99.385805    3.8075632     1533.261    38639.516 
  280000    497.40718   -274661.08            0   -272130.11   -967.89292    97.693894    98.410811    99.385805    5.3840962    1540.1394     38637.41 
  281000    502.07935   -274631.26            0   -272076.51   -890.76913    97.693894    98.410811    99.385805    4.3326898    1546.4303     38620.59 
  282000    498.08945   -274639.59            0   -272105.15   -859.24833    97.693894    98.410811    99.385805    4.0703026    1552.7869    38605.494 
  283000    499.68248   -274638.04            0   -272095.49   -533.01954    97.693894    98.410811    99.385805    4.0888969    1559.6472    38602.941 
  284000    500.64264    -274620.6            0   -272073.17   -625.29445    97.693894    98.410811    99.385805    3.7014643    1566.8466    38608.707 
  285000     500.2445   -274639.93            0   -272094.52   -738.19655    97.693894    98.410811    99.385805    4.3775827    1573.2626    38595.144 
  286000    497.33747   -274660.22            0   -272129.61   -918.48829    97.693894    98.410811    99.385805    4.0783459    1580.1871    38594.061 
  287000    504.03875   -274663.37            0   -272098.66   -851.67282    97.693894    98.410811    99.385805    3.9839102    1586.4998    38578.051 
  288000    501.45166   -274678.86            0   -272127.31   -779.57643    97.693894    98.410811    99.385805    3.8938936    1592.7604    38560.863 
  289000    502.68073   -274659.72            0   -272101.91   -589.00126    97.693894    98.410811    99.385805    4.6400866    1599.6767    38559.571 
  290000    502.02577   -274655.93            0   -272101.46   -544.48351    97.693894    98.410811    99.385805     3.657273    1606.8353    38564.048 
  291000    496.48235   -274659.11            0   -272132.85   -643.98204    97.693894    98.410811    99.385805    4.1498237    1613.2052    38549.579 
  292000    499.30737   -274648.76            0   -272108.12   -706.61574    97.693894    98.410811    99.385805    4.2531619     1620.108     38547.86 
  293000    499.34845   -274634.32            0   -272093.47    -701.7521    97.693894    98.410811    99.385805    3.6457077    1626.4457    38532.708 
  294000    497.18832    -274654.8            0   -272124.94   -1025.3249    97.693894    98.410811    99.385805    4.3138401    1632.7766    38517.469 
  295000    502.87498   -274649.39            0    -272090.6   -727.45715    97.693894    98.410811    99.385805     4.409395    1639.7013    38516.249 
  296000     500.0862   -274640.23            0   -272095.63   -577.28917    97.693894    98.410811    99.385805     4.243467    1646.8975    38521.334 
  297000    498.52392   -274660.83            0   -272124.18   -770.01412    97.693894    98.410811    99.385805     3.985311    1653.4077    38510.343 
  298000    502.38657   -274657.59            0   -272101.28   -838.71895    97.693894    98.410811    99.385805    4.1537835    1660.3047    38508.357 
  299000     501.3703   -274679.77            0   -272128.63   -882.06711    97.693894    98.410811    99.385805    4.1206233    1666.6166    38492.819 
  300000    498.32322    -274657.7            0   -272122.07    -826.7553    97.693894    98.410811    99.385805    3.7494988    1672.9232    38477.234 
  301000     502.4547      -274659            0   -272102.35   -576.17367    97.693894    98.410811    99.385805    4.9491937    1679.8011    38474.808 
  302000    498.90666   -274652.67            0   -272114.07   -660.76513    97.693894    98.410811    99.385805    3.8429175    1686.9656    38478.883 
  303000    499.80864   -274637.26            0   -272094.08   -815.21798    97.693894    98.410811    99.385805    4.1924476    1693.4177    38466.687 
  304000    501.30241   -274643.02            0   -272092.23   -640.85347    97.693894    98.410811    99.385805    3.8634101     1700.309     38464.47 
  305000    499.62741   -274645.54            0   -272103.28   -689.24486    97.693894    98.410811    99.385805    3.7127728    1706.6407     38449.61 
  306000    504.76116   -274647.78            0   -272079.39   -490.25957    97.693894    98.410811    99.385805    4.3605073    1712.9994    38435.424 
  307000    495.45022   -274654.83            0   -272133.82   -739.12282    97.693894    98.410811    99.385805    4.1595672    1719.8652     38432.63 
  308000    502.77862   -274648.87            0   -272090.57   -540.93984    97.693894    98.410811    99.385805    3.9200456    1727.1128    38438.301 
  309000    500.10513   -274655.21            0   -272110.51   -578.66958    97.693894    98.410811    99.385805    3.9503228     1733.571    38426.374 
  310000    500.70919   -274636.56            0   -272088.79   -517.24307    97.693894    98.410811    99.385805    3.6461919    1740.4553    38423.898 
  311000    498.24426   -274659.79            0   -272124.56   -750.39462    97.693894    98.410811    99.385805    4.1396309    1746.7988    38409.496 
  312000    502.80931   -274641.89            0   -272083.43   -446.66107    97.693894    98.410811    99.385805    3.7937506    1753.1829    38396.044 
  313000    503.26618   -274669.16            0   -272108.37   -740.60366    97.693894    98.410811    99.385805    3.8585176    1760.0661    38393.534 
  314000    501.78155   -274652.18            0   -272098.95   -861.91749    97.693894    98.410811    99.385805    4.5346285    1767.2501    38397.525 
  315000    496.24467    -274652.5            0   -272127.45   -778.20484    97.693894    98.410811    99.385805    3.8574072    1773.6837    38385.192 
  316000    499.65962    -274635.2            0   -272092.77    -491.5041    97.693894    98.410811    99.385805    4.1806296    1780.5343    38381.893 
  317000    497.93104   -274654.36            0   -272120.73    -537.8774    97.693894    98.410811    99.385805    4.2431917    1786.9284    38368.766 
  318000     499.4902   -274658.86            0   -272117.29   -832.11557    97.693894    98.410811    99.385805    3.6543058    1793.2086    38353.253 
  319000    502.46008    -274641.9            0   -272085.22   -746.62751    97.693894    98.410811    99.385805    4.4164118    1800.1512    38351.919 
  320000    497.78283   -274659.16            0   -272126.28   -697.98988    97.693894    98.410811    99.385805    4.4730661    1807.3574    38356.141 
  321000    500.60033   -274643.52            0    -272096.3   -562.73198    97.693894    98.410811    99.385805    3.6093862    1813.8459    38345.103 
  322000    501.05055    -274656.6            0   -272107.09   -547.58245    97.693894    98.410811    99.385805    3.7717842    1820.6762    38341.299 
  323000    497.91076    -274664.6            0   -272131.06    -663.0551    97.693894    98.410811    99.385805    4.2280871    1826.9525     38325.85 
  324000    498.75388   -274656.58            0   -272118.76   -692.56054    97.693894    98.410811    99.385805    3.6355184    1833.2369    38310.637 
  325000      500.363   -274642.54            0   -272096.53   -613.67497    97.693894    98.410811    99.385805    4.3876817    1840.0801    38307.123 
  326000    499.19628   -274667.58            0    -272127.5   -599.74498    97.693894    98.410811    99.385805    4.5337637    1847.3024    38311.445 
  327000    498.37123   -274644.43            0   -272108.56   -447.04379    97.693894    98.410811    99.385805    4.1685741    1853.8166    38301.057 
  328000    499.17208   -274642.93            0   -272102.98   -608.13521    97.693894    98.410811    99.385805    3.7396627    1860.7272    38298.852 
  329000    496.51619   -274664.57            0   -272138.14   -322.83076    97.693894    98.410811    99.385805    4.0577753     1867.125    38286.101 
  330000    501.66668   -274653.56            0   -272100.91   -876.03557    97.693894    98.410811    99.385805    4.2153591    1873.4389    38271.681 
  331000    499.51791   -274659.41            0    -272117.7   -986.18636    97.693894    98.410811    99.385805    3.9434536    1880.3182    38268.824 
  332000    502.44162   -274653.37            0   -272096.78   -955.91517    97.693894    98.410811    99.385805    3.9122342    1887.5204    38272.488 
  333000    499.56621   -274659.79            0   -272117.83   -748.15764    97.693894    98.410811    99.385805    3.8365868    1894.0436    38262.358 
  334000    498.65318   -274660.54            0   -272123.23   -551.40047    97.693894    98.410811    99.385805    4.1753735    1900.9451    38259.868 
  335000    497.28626   -274665.59            0   -272135.23    -681.1812    97.693894    98.410811    99.385805     4.439286    1907.2335    38245.051 
  336000    500.61449   -274661.45            0   -272114.16   -638.20978    97.693894    98.410811    99.385805    3.7890842    1913.6606    38233.066 
  337000    499.01534   -274668.05            0   -272128.89   -685.12069    97.693894    98.410811    99.385805    5.5306344    1920.6329     38231.97 
  338000    498.54798   -274685.74            0   -272148.97   -842.41324    97.693894    98.410811    99.385805    5.2237927    1927.7827    38234.356 
  339000    501.64901   -274661.15            0    -272108.6   -749.84689    97.693894    98.410811    99.385805    3.9631622    1934.4017    38226.187 
  340000    500.58663   -274681.49            0   -272134.34   -825.54356    97.693894    98.410811    99.385805    4.1113445    1941.2567    38222.675 
  341000    501.16785   -274657.28            0   -272107.18   -857.47076    97.693894    98.410811    99.385805    4.4650621     1947.588    38208.865 
  342000    501.74098   -274665.58            0   -272112.56   -751.03159    97.693894    98.410811    99.385805    3.8373016    1953.8829    38194.396 
  343000    500.40201   -274669.75            0   -272123.54   -846.80637    97.693894    98.410811    99.385805     3.672554    1960.8369    38192.819 
  344000    497.96883   -274672.05            0   -272138.22   -672.31415    97.693894    98.410811    99.385805    4.1474644    1967.9515    38194.324 
  345000    504.06852   -274658.05            0   -272093.18   -773.34281    97.693894    98.410811    99.385805    4.0972892     1974.511    38185.034 
  346000    502.73175   -274661.57            0   -272103.51   -700.75079    97.693894    98.410811    99.385805    4.5857516    1981.3078    38180.337 
  347000    497.49657   -274658.17            0   -272126.75    -508.3396    97.693894    98.410811    99.385805    3.8439205    1987.6795    38167.462 
  348000    496.72302   -274676.57            0   -272149.09   -814.12874    97.693894    98.410811    99.385805     4.087775    1994.0081    38153.805 
  349000    499.50039   -274676.92            0   -272135.29   -590.78682    97.693894    98.410811    99.385805    4.2090425    2001.0161    38153.152 
  350000     502.7729   -274667.13            0   -272108.86    -887.7111    97.693894    98.410811    99.385805    4.0371775    2008.1049    38153.993 
  351000    499.60079   -274681.96            0   -272139.83    -608.0012    97.693894    98.410811    99.385805    4.3924323    2014.6222     38143.96 
  352000    503.63562   -274653.49            0   -272090.83   -726.09951    97.693894    98.410811    99.385805    3.7670644    2021.5008    38140.767 
  353000    499.18451   -274670.84            0   -272130.83   -899.63847    97.693894    98.410811    99.385805    4.7737188    2027.8073    38126.793 
  354000    499.81183   -274645.33            0   -272102.12    -589.4649    97.693894    98.410811    99.385805     4.073397    2034.1879    38114.257 
  355000    502.07656   -274680.52            0   -272125.79    -674.2569    97.693894    98.410811    99.385805    4.3518192    2041.1812    38113.204 
  356000    498.65745   -274685.09            0   -272147.76   -796.76432    97.693894    98.410811    99.385805    4.2212149    2048.4416     38117.08 
  357000    497.31853   -274668.02            0    -272137.5   -775.27646    97.693894    98.410811    99.385805    3.8332059    2055.0419    38108.643 
  358000    498.19455   -274655.72            0   -272120.75    -904.3695    97.693894    98.410811    99.385805    3.9809843    2061.7718    38102.614 
  359000    498.69606   -274672.08            0   -272134.55   -767.23947    97.693894    98.410811    99.385805    4.1538817    2068.1155    38089.467 
  360000    497.08144   -274666.35            0   -272137.04   -625.15239    97.693894    98.410811    99.385805    4.0482445    2074.5203    38077.486 
  361000    500.05503   -274671.77            0   -272127.33   -705.19252    97.693894    98.410811    99.385805    4.0773664    2081.7296    38080.256 
  362000    501.00609   -274661.45            0   -272112.16   -403.32316    97.693894    98.410811    99.385805    4.3678517    2088.5135    38075.208 
  363000    499.44698   -274660.83            0   -272119.48    -465.4962    97.693894    98.410811    99.385805    4.3129203    2095.0254    38065.206 
  364000    501.65171   -274658.77            0   -272106.21   -698.16066    97.693894    98.410811    99.385805    4.2558437    2101.9078    38061.935 
  365000    498.76699    -274668.3            0   -272130.41    -533.9406    97.693894    98.410811    99.385805    3.6860679    2108.2117    38048.201 
  366000    497.33101   -274671.78            0    -272141.2   -551.63866    97.693894    98.410811    99.385805    4.1687826    2114.5754    38035.591 
  367000    501.62557   -274661.51            0   -272109.08   -367.48064    97.693894    98.410811    99.385805    3.6838039    2121.7561    38037.665 
  368000    497.59594   -274653.68            0   -272121.75   -564.37566    97.693894    98.410811    99.385805    4.3268813    2128.6323    38034.242 
  369000    501.61318   -274667.63            0   -272115.26   -433.07177    97.693894    98.410811    99.385805    3.9156684    2135.1374    38024.187 
  370000    502.91361   -274651.25            0   -272092.26   -610.73387    97.693894    98.410811    99.385805    4.3853082    2141.9307     38019.27 
  371000    499.45779   -274668.72            0   -272127.32     -710.325    97.693894    98.410811    99.385805    3.6614762    2148.3107     38007.03 
  372000    501.54164   -274655.83            0   -272103.82   -650.47704    97.693894    98.410811    99.385805    3.7829928    2154.6942    37994.888 
  373000    501.40676   -274671.63            0   -272120.31   -588.75062    97.693894    98.410811    99.385805    4.0176616    2161.8345    37996.081 
  374000    502.15443   -274670.73            0   -272115.61   -822.17689    97.693894    98.410811    99.385805    3.8864308    2168.6901    37992.237 
  375000    501.40539   -274686.05            0   -272134.74   -832.56781    97.693894    98.410811    99.385805    3.7551897    2175.2598    37983.382 
  376000    502.75988   -274677.67            0   -272119.46   -826.06342    97.693894    98.410811    99.385805    4.5267376    2181.9385    37976.439 
  377000    503.13316   -274681.05            0   -272120.94   -700.61024    97.693894    98.410811    99.385805    4.1362239    2188.2374    37962.907 
  378000    498.52253   -274683.45            0   -272146.81   -892.78217    97.693894    98.410811    99.385805     4.026177    2194.5949    37950.435 
  379000     500.4432    -274672.1            0   -272125.69    -618.9881    97.693894    98.410811    99.385805    4.3001815     2201.703    37950.935 
  380000    497.80889   -274667.19            0   -272134.18   -887.91988    97.693894    98.410811    99.385805    3.8858239    2208.6429    37948.501 
  381000    504.26858   -274687.43            0   -272121.55   -969.85746    97.693894    98.410811    99.385805    4.1690546    2215.2602    37940.514 
  382000    500.81385   -274661.56            0   -272113.26     -974.288    97.693894    98.410811    99.385805    4.5636561    2221.9929    37934.504 
  383000    500.96047   -274665.84            0   -272116.79   -617.47872    97.693894    98.410811    99.385805    3.8235926    2228.3203    37921.595 
  384000    501.74017   -274686.24            0   -272133.22   -687.06966    97.693894    98.410811    99.385805    4.0234379    2234.6297    37908.418 
  385000    502.36534   -274687.28            0   -272131.08   -639.80649    97.693894    98.410811    99.385805    4.2933213    2241.7054    37908.242 
  386000    503.22153   -274657.28            0   -272096.73    -907.7577    97.693894    98.410811    99.385805    3.9690728    2248.6568    37905.928 
  387000    497.67682   -274674.86            0   -272142.52    -731.2742    97.693894    98.410811    99.385805    3.7917238    2255.2703     37897.91 
  388000    500.52734   -274673.84            0   -272126.99      -432.95    97.693894    98.410811    99.385805    4.9130797    2261.9945    37891.754 
  389000    500.67461   -274641.32            0   -272093.72   -690.67432    97.693894    98.410811    99.385805    4.0133685    2268.3452    37879.358 
  390000       500.07   -274681.79            0   -272137.27   -553.10279    97.693894    98.410811    99.385805    4.0585627    2274.7238    37867.461 
  391000    501.99997   -274660.75            0   -272106.41   -847.67671    97.693894    98.410811    99.385805    4.6039122    2281.8988    37868.813 
  392000    499.60388   -274675.02            0   -272132.87   -618.95781    97.693894    98.410811    99.385805    3.8915344    2288.7858    37865.351 
  393000    501.35361   -274670.51            0   -272119.46   -582.20088    97.693894    98.410811    99.385805    3.7811423    2295.3859    37857.138 
  394000     495.1754   -274668.38            0   -272148.76   -599.22451    97.693894    98.410811    99.385805    3.8520374    2302.1409     37851.48 
  395000    499.02352   -274659.29            0    -272120.1   -820.82101    97.693894    98.410811    99.385805    4.2424001    2308.5303    37839.822 
  396000    500.59281   -274698.77            0   -272151.59   -776.71262    97.693894    98.410811    99.385805    4.1333924    2314.9277    37828.328 
  397000    502.99725   -274673.85            0   -272114.43   -590.30577    97.693894    98.410811    99.385805    3.9580659     2322.065    37828.914 
  398000      500.111   -274679.33            0    -272134.6   -617.49665    97.693894    98.410811    99.385805    4.8128301    2328.9728    37825.731 
  399000    499.57627   -274674.12            0   -272132.11    -725.0847    97.693894    98.410811    99.385805    3.7661582    2335.5707    37817.507 
  400000    498.86299   -274660.03            0   -272121.65   -742.00605    97.693894    98.410811    99.385805    3.9642006    2342.3399    37812.058 
  401000    502.49956   -274685.84            0   -272128.96   -514.71992    97.693894    98.410811    99.385805    4.0045404    2348.5926    37798.289 
  402000    499.70466   -274683.09            0   -272140.43    -643.2528    97.693894    98.410811    99.385805    4.2020221    2354.9615    37786.427 
  403000    503.76869   -274676.92            0   -272113.58    -466.1283    97.693894    98.410811    99.385805    4.3937743    2362.0799    37786.586 
  404000    499.40412   -274684.94            0   -272143.81   -532.46704    97.693894    98.410811    99.385805    4.0150956    2368.8973    37781.905 
  405000    500.34588   -274685.46            0   -272139.54   -664.72462    97.693894    98.410811    99.385805    3.7085255    2375.5448    37774.507 
  406000    496.43834   -274680.21            0   -272154.17   -508.59964    97.693894    98.410811    99.385805    4.3388692    2382.3145    37769.053 
  407000    503.59429   -274668.24            0   -272105.78    -846.2848    97.693894    98.410811    99.385805    3.6975042    2388.6062    37756.035 
  408000    500.66142   -274673.53            0      -272126   -531.68443    97.693894    98.410811    99.385805     4.220866    2395.0082    37744.794 
  409000    501.03448   -274664.34            0   -272114.91   -705.85985    97.693894    98.410811    99.385805    3.7694429    2402.0899    37744.259 
  410000    498.23497    -274674.3            0   -272139.12   -1011.0488    97.693894    98.410811    99.385805    3.6442143     2408.959    37740.358 
  411000    499.63875   -274672.71            0   -272130.39    -909.7146    97.693894    98.410811    99.385805    3.9402554    2415.4954    37731.243 
  412000     498.9954   -274678.18            0   -272139.13   -669.34741    97.693894    98.410811    99.385805    3.9559082    2422.2064    37724.861 
  413000    499.23993   -274673.46            0   -272133.16   -888.77723    97.693894    98.410811    99.385805    3.7236822    2428.4724    37711.567 
  414000    500.33302   -274668.97            0   -272123.11   -401.71079    97.693894    98.410811    99.385805    4.0903542    2434.7859    37699.048 
  415000    497.16494   -274656.72            0   -272126.99   -775.69362    97.693894    98.410811    99.385805    4.2484637    2441.8679    37698.426 
  416000      494.579   -274664.51            0   -272147.93   -737.37139    97.693894    98.410811    99.385805    4.0977811    2448.8082    37695.589 
  417000    499.84743   -274666.62            0   -272123.23   -700.52156    97.693894    98.410811    99.385805     4.246291    2455.3634    37686.818 
  418000    502.53212    -274675.9            0   -272118.85   -815.64126    97.693894    98.410811    99.385805     4.244162    2462.1224    37681.178 
  419000    498.13915   -274691.52            0   -272156.83   -800.91344    97.693894    98.410811    99.385805    4.9988991    2468.4236    37668.545 
  420000    501.76944   -274684.84            0   -272131.67   -616.91061    97.693894    98.410811    99.385805    3.9167165    2474.7537    37656.387 
  421000    497.30929   -274671.74            0   -272141.27   -617.82798    97.693894    98.410811    99.385805    4.4687531    2481.7586    37654.498 
  422000    500.57488   -274663.86            0   -272116.78    -553.2946    97.693894    98.410811    99.385805    4.0726779    2488.6712    37651.186 
  423000    499.42541   -274686.77            0   -272145.53   -561.79825    97.693894    98.410811    99.385805     4.169471    2495.2173    37642.327 
  424000    503.75726   -274685.69            0   -272122.41   -893.44262    97.693894    98.410811    99.385805    4.3291475    2502.0338    37637.546 
  425000    502.22775   -274688.67            0   -272133.17   -1064.0375    97.693894    98.410811    99.385805    3.7959942    2508.3365    37625.048 
  426000    500.20345   -274685.73            0   -272140.53   -823.55942    97.693894    98.410811    99.385805    3.9760101    2514.7826    37614.726 
  427000    495.14678   -274686.76            0   -272167.29   -734.31086    97.693894    98.410811    99.385805    3.7040019    2521.8856    37614.225 
  428000    501.31744   -274671.38            0   -272120.52   -697.94498    97.693894    98.410811    99.385805    4.0499571    2528.8541    37611.688 
  429000    497.21878   -274685.63            0   -272155.62   -597.88796    97.693894    98.410811    99.385805     4.604687    2535.4077    37602.973 
  430000    500.27398   -274673.86            0   -272128.31   -837.25954    97.693894    98.410811    99.385805    4.7023284    2542.1698    37597.353 
  431000      498.894   -274677.27            0   -272138.74   -742.93803    97.693894    98.410811    99.385805    3.5819025    2548.4906     37585.22 
  432000    495.73638    -274664.3            0   -272141.83   -962.92973    97.693894    98.410811    99.385805    4.5605899    2554.8058    37573.034 
  433000    502.64689    -274676.2            0   -272118.57   -667.05561    97.693894    98.410811    99.385805    4.0655607    2561.8929      37572.2 
  434000    501.03273   -274666.71            0   -272117.29   -387.90692    97.693894    98.410811    99.385805    4.0481222    2568.7845    37568.473 
  435000    502.24062   -274661.05            0   -272105.48   -664.51057    97.693894    98.410811    99.385805    4.3642374    2575.4271    37561.099 
  436000    498.29521   -274689.15            0   -272153.67   -772.91601    97.693894    98.410811    99.385805    3.9527349    2582.1722    37555.219 
  437000    501.29381   -274671.08            0   -272120.34   -600.24945    97.693894    98.410811    99.385805     3.878885    2588.4973    37543.243 
  438000    498.89387   -274681.61            0   -272143.07    -559.8739    97.693894    98.410811    99.385805    3.9944941    2594.8826    37532.167 
  439000    497.38524   -274694.73            0   -272163.88   -868.13306    97.693894    98.410811    99.385805    4.1524842    2601.9964    37531.624 
  440000    501.01011   -274674.66            0   -272125.35   -639.71643    97.693894    98.410811    99.385805     3.749092    2608.9697    37529.026 
  441000    505.27584   -274667.86            0   -272096.85   -751.14176    97.693894    98.410811    99.385805    4.4227533     2615.502    37520.079 
  442000    500.50518   -274693.64            0    -272146.9   -635.56993    97.693894    98.410811    99.385805    4.1817086    2622.2583    37514.348 
  443000    498.80097   -274675.95            0   -272137.88   -465.22991    97.693894    98.410811    99.385805    4.6051885    2628.5904    37502.561 
  444000    498.89087   -274670.95            0   -272132.44   -671.55714    97.693894    98.410811    99.385805    4.2653146    2634.9626    37491.372 
  445000    499.29314   -274679.33            0   -272138.76   -732.38482    97.693894    98.410811    99.385805    4.7248908    2642.1582     37491.89 
  446000    504.64181   -274679.11            0   -272111.33   -676.92102    97.693894    98.410811    99.385805    4.1978457    2649.1216    37489.085 
  447000    500.71184   -274698.04            0   -272150.26   -423.87038    97.693894    98.410811    99.385805     4.086981    2655.7504    37481.535 
  448000    502.38494   -274681.24            0   -272124.94   -583.81387    97.693894    98.410811    99.385805    4.4902285    2662.3818    37474.028 
  449000    502.33794   -274670.63            0   -272114.57   -899.70679    97.693894    98.410811    99.385805    4.6942723     2668.624    37461.061 
  450000    498.41395   -274685.88            0   -272149.79   -890.57558    97.693894    98.410811    99.385805    4.0167314    2675.0222    37450.311 
  451000    501.15988   -274679.43            0   -272129.37   -860.87243    97.693894    98.410811    99.385805    3.7577576    2682.2516    37451.189 
  452000      497.964   -274690.53            0   -272156.73    -752.7744    97.693894    98.410811    99.385805    4.0834162    2689.0826    37446.479 
  453000    501.82629   -274679.25            0   -272125.79   -521.81392    97.693894    98.410811    99.385805    4.3945606    2695.6647    37438.301 
  454000    496.55943   -274705.77            0   -272179.11   -651.72236    97.693894    98.410811    99.385805    3.8127439    2702.4252    37432.602 
  455000    498.57935   -274660.95            0   -272124.02   -504.23682    97.693894    98.410811    99.385805    4.2103745    2708.7742    37421.214 
  456000     499.5492    -274675.9            0   -272134.03   -662.49463    97.693894    98.410811    99.385805    4.1697875    2715.1822    37410.664 
  457000    497.57963   -274691.12            0   -272159.27   -778.42343    97.693894    98.410811    99.385805    3.7451644    2722.4283     37411.65 
  458000    498.73171   -274666.99            0   -272129.28   -678.63257    97.693894    98.410811    99.385805    4.1000613    2729.1363    37405.221 
  459000    498.87383   -274702.89            0   -272164.45   -648.23044    97.693894    98.410811    99.385805    4.3006843     2735.586    37395.261 
  460000    500.04171    -274671.4            0   -272127.02   -527.16054    97.693894    98.410811    99.385805    4.3551029     2742.368    37389.847 
  461000    495.58002   -274688.19            0   -272166.51   -577.81137    97.693894    98.410811    99.385805    3.9826002    2748.6756    37377.976 
  462000    501.70587   -274671.85            0   -272119.01   -557.88885    97.693894    98.410811    99.385805    4.3698934    2755.0376    37366.869 
  463000    499.20176   -274685.33            0   -272145.23   -650.76817    97.693894    98.410811    99.385805    4.0217879    2762.3306    37368.381 
  464000    499.28828   -274677.77            0   -272137.23   -769.45184    97.693894    98.410811    99.385805    3.5160568    2769.0745     37362.44 
  465000    498.82618   -274685.35            0   -272147.16    -580.3706    97.693894    98.410811    99.385805    3.8943716    2775.6846    37354.695 
  466000    494.26177   -274683.58            0   -272168.61   -837.78292    97.693894    98.410811    99.385805    4.5052322    2782.3969    37348.328 
  467000    501.05902   -274674.09            0   -272124.54   -907.47171    97.693894    98.410811    99.385805    4.1889995    2788.8084    37337.932 
  468000    499.21124   -274689.31            0   -272149.16   -518.84593    97.693894    98.410811    99.385805    3.8270914    2795.1301    37326.354 
  469000    504.63212   -274666.95            0   -272099.21   -741.53267    97.693894    98.410811    99.385805     3.706482    2802.4125    37327.599 
  470000    500.28591   -274680.11            0   -272134.49    -667.2375    97.693894    98.410811    99.385805    3.8692563    2809.1616    37321.719 
  471000    499.47186    -274675.7            0   -272134.22   -640.22057    97.693894    98.410811    99.385805    3.9620468    2815.7882    37314.209 
  472000    501.15846   -274681.14            0   -272131.09    -826.3799    97.693894    98.410811    99.385805    3.9354823    2822.5533    37308.537 
  473000    497.29698   -274673.69            0   -272143.28   -797.04956    97.693894    98.410811    99.385805    3.7846755    2828.8407     37296.56 
  474000     501.3185   -274681.32            0   -272130.45   -744.28741    97.693894    98.410811    99.385805    4.4288009    2835.1728    37285.198 
  475000    500.64667   -274692.58            0   -272145.13   -607.82143    97.693894    98.410811    99.385805    4.4477636    2842.3959    37285.547 
  476000    499.30745   -274683.68            0   -272143.05   -705.82041    97.693894    98.410811    99.385805    4.4922173    2849.2221    37280.666 
  477000    495.73048   -274676.23            0   -272153.79   -706.30142    97.693894    98.410811    99.385805     4.207548    2855.7606    37272.023 
  478000    498.15535   -274679.18            0    -272144.4   -574.37058    97.693894    98.410811    99.385805    4.3735581    2862.4985    37265.985 
  479000    501.70573   -274677.72            0   -272124.88   -550.68502    97.693894    98.410811    99.385805    4.5564768    2868.8214    37254.555 
  480000    502.90712   -274655.36            0   -272096.41   -680.36845    97.693894    98.410811    99.385805    4.0208218    2875.1865    37243.694 
  481000    501.36838   -274692.67            0   -272141.54   -827.02847    97.693894    98.410811    99.385805    3.7466818     2882.391    37243.701 
  482000    497.40917   -274704.59            0   -272173.61   -761.33857    97.693894    98.410811    99.385805    4.0300896     2889.168    37238.166 
  483000    501.27313   -274682.72            0   -272132.08   -937.66258    97.693894    98.410811    99.385805    3.9916463    2895.7097    37229.598 
  484000     501.4998   -274679.09            0    -272127.3   -807.62295    97.693894    98.410811    99.385805    3.8389722    2902.4041    37222.998 
  485000    498.70489   -274678.18            0   -272140.61   -792.65262    97.693894    98.410811    99.385805    3.8158444     2908.732    37211.709 
  486000    500.04922   -274668.28            0   -272123.86   -815.94309    97.693894    98.410811    99.385805    3.8058663     2915.054    37200.367 
  487000    500.58738   -274653.69            0   -272106.54   -826.65531    97.693894    98.410811    99.385805    4.0773931    2922.2291    37199.909 
  488000    497.05272   -274683.72            0   -272154.56     -760.264    97.693894    98.410811    99.385805    4.0095003    2929.0157    37194.486 
  489000     495.5644   -274651.67            0   -272130.08   -679.47996    97.693894    98.410811    99.385805    4.0312145    2935.6192    37186.739 
  490000    499.33589   -274652.19            0   -272111.41   -823.93863    97.693894    98.410811    99.385805    3.6594703     2942.346    37180.554 
[...]
15930000    500.22058   -274814.94            0   -272269.66   -869.15981    97.693894    98.410811    99.385805    3.5828157    66335.957    805.69988 
15931000     499.3217   -274806.47            0   -272265.76   -1015.7626    97.693894    98.410811    99.385805    3.9512556    66342.674    798.98575 
15932000    502.18833    -274789.8            0    -272234.5   -674.21821    97.693894    98.410811    99.385805    4.0278079    66349.495    792.27286 
15933000    499.34017   -274802.39            0   -272261.59   -631.14473    97.693894    98.410811    99.385805    4.2640046    66355.993    785.55612 
15934000      498.515   -274797.34            0   -272260.73   -984.79455    97.693894    98.410811    99.385805    3.9990194    66362.346    778.83774 
15935000    501.07485   -274796.87            0   -272247.24   -551.39035    97.693894    98.410811    99.385805    4.4056692    66369.002    772.12293 
15936000    499.20088   -274774.02            0   -272233.92    -927.5178    97.693894    98.410811    99.385805    4.8442737    66376.221    765.41465 
15937000    496.56496   -274788.76            0   -272262.07   -957.86487    97.693894    98.410811    99.385805    3.8462048    66382.906    758.70015 
15938000    500.25799   -274788.61            0   -272243.13   -822.08128    97.693894    98.410811    99.385805    4.6423563    66389.807     751.9881 
15939000    498.57517   -274784.93            0   -272248.02   -848.32217    97.693894    98.410811    99.385805    4.3934524    66396.308    745.27153 
15940000    497.72403   -274795.47            0   -272262.89   -699.06883    97.693894    98.410811    99.385805    4.2057387    66402.682    738.55359 
15941000    501.18434    -274821.1            0   -272270.91   -735.77549    97.693894    98.410811    99.385805    4.0273154    66409.323    731.83866 
15942000    494.86989   -274811.16            0    -272293.1     -792.621    97.693894    98.410811    99.385805     3.884958    66416.451    725.12906 
15943000    500.34728    -274793.4            0   -272247.47   -667.45792    97.693894    98.410811    99.385805    3.8727897    66423.176    718.41503 
15944000    498.69328   -274801.61            0    -272264.1   -617.38919    97.693894    98.410811    99.385805    3.6298942    66430.017    711.70223 
15945000    497.05142   -274781.72            0   -272252.56   -612.78199    97.693894    98.410811    99.385805    3.7100558    66436.427    704.98482 
15946000    498.94638   -274793.15            0   -272254.35    -842.9558    97.693894    98.410811    99.385805    4.0170748    66442.739    698.26645 
15947000    500.91045    -274790.1            0   -272241.31   -696.09731    97.693894    98.410811    99.385805    4.2885546    66449.363    691.55142 
15948000    497.67078   -274801.78            0   -272269.47   -698.74118    97.693894    98.410811    99.385805     4.141336    66456.575    684.84246 
15949000    496.58562   -274781.37            0   -272254.58   -883.37992    97.693894    98.410811    99.385805    4.9395486    66463.429    678.12975 
15950000    494.08014   -274799.44            0    -272285.4   -592.73615    97.693894    98.410811    99.385805    3.9802637    66470.188    671.41604 
15951000    500.64453   -274803.62            0   -272256.18   -816.42623    97.693894    98.410811    99.385805    3.8588729    66476.574     664.6986 
15952000    499.62959   -274799.42            0   -272257.14   -780.01585    97.693894    98.410811    99.385805    3.9467855    66482.796     657.9796 
15953000    498.19559   -274796.31            0   -272261.33   -404.11684    97.693894    98.410811    99.385805     4.393011    66489.432    651.26476 
15954000    503.65777   -274797.89            0   -272235.11   -780.70137    97.693894    98.410811    99.385805    3.8207846    66496.707    644.55613 
15955000    500.61071   -274803.89            0   -272256.62   -849.18843    97.693894    98.410811    99.385805     4.176742    66503.269    637.84054 
15956000     502.6174   -274782.34            0   -272224.86   -584.30651    97.693894    98.410811    99.385805    4.4634505    66510.081    631.12736 
15957000    502.33881   -274816.48            0   -272260.42   -707.10671    97.693894    98.410811    99.385805    3.9961087    66516.556    624.41099 
15958000    498.14671   -274801.53            0    -272266.8   -832.47173    97.693894    98.410811    99.385805    4.1746878     66522.93    617.69373 
15959000    500.69165   -274798.06            0   -272250.37   -625.28901    97.693894    98.410811    99.385805    4.8704902    66529.565    610.97895 
15960000    498.77109    -274803.3            0   -272265.39   -841.51282    97.693894    98.410811    99.385805    3.6409377    66536.896     604.2705 
15961000    501.33064   -274820.23            0    -272269.3   -926.29817    97.693894    98.410811    99.385805    4.1791608      66543.5    597.55539 
15962000     499.3324   -274805.65            0   -272264.89   -924.46484    97.693894    98.410811    99.385805    4.1513758    66550.334    590.84235 
15963000    500.77404   -274813.37            0   -272265.27   -745.35283    97.693894    98.410811    99.385805    4.2564436    66556.693    584.12511 
15964000    500.81071   -274802.28            0      -272254   -849.61553    97.693894    98.410811    99.385805     4.131638    66563.018    577.40766 
15965000    496.60439   -274793.75            0   -272266.86   -885.09008    97.693894    98.410811    99.385805    4.1193538    66569.699    570.69334 
15966000    500.99668   -274795.89            0   -272246.66   -562.72287    97.693894    98.410811    99.385805    4.9201037    66577.069    563.98485 
15967000    500.09891   -274795.26            0    -272250.6    -451.7251    97.693894    98.410811    99.385805    4.2558854    66583.662    557.26974 
15968000    501.36746   -274813.76            0   -272262.64   -456.76019    97.693894    98.410811    99.385805    4.0883274    66590.493    550.55661 
15969000     499.8946   -274794.66            0   -272251.03    -522.2588    97.693894    98.410811    99.385805    3.8678802    66596.899    543.83999 
15970000    498.40928   -274792.87            0   -272256.81   -891.73817    97.693894    98.410811    99.385805    3.9441872    66603.295    537.12335 
15971000    503.46876   -274800.96            0   -272239.15   -637.64668    97.693894    98.410811    99.385805    4.1038606    66609.971      530.409 
15972000    500.88789   -274792.92            0   -272244.24   -536.00484    97.693894    98.410811    99.385805    3.8100341    66617.364     523.7003 
15973000    500.23329   -274799.74            0   -272254.39   -1039.0904    97.693894    98.410811    99.385805    3.8995221    66623.932    516.98506 
15974000    500.64261      -274795            0   -272247.57   -729.45158    97.693894    98.410811    99.385805     4.242051    66630.813    510.27225 
15975000    498.63108   -274796.86            0   -272259.67   -737.41928    97.693894    98.410811    99.385805    4.1776679    66637.189    503.55558 
15976000    500.81329   -274790.73            0   -272242.43   -923.56327    97.693894    98.410811    99.385805    3.9990004    66643.547    496.83885 
15977000    500.75856   -274799.38            0   -272251.36   -783.70679    97.693894    98.410811    99.385805    4.4855789    66650.203    490.12439 
15978000    500.46039   -274791.86            0   -272245.36   -727.19445    97.693894    98.410811    99.385805    4.0880876    66657.589    483.41523 
15979000    500.80479   -274802.84            0   -272254.58    -831.6206    97.693894    98.410811    99.385805    4.1071337    66664.147    476.70002 
15980000    498.70925   -274800.19            0    -272262.6   -784.76017    97.693894    98.410811    99.385805    4.5291214    66670.918    469.98633 
15981000    498.27764   -274806.84            0   -272271.44    -700.0106    97.693894    98.410811    99.385805    4.0328875    66677.355    463.27031 
15982000    499.63184   -274789.54            0   -272247.25   -649.51676    97.693894    98.410811    99.385805    3.5754927    66683.625    456.55321 
15983000    500.07019   -274786.16            0   -272241.64   -724.94521    97.693894    98.410811    99.385805    3.8282613    66690.284    449.83882 
15984000    501.77978   -274801.34            0   -272248.12   -910.10048    97.693894    98.410811    99.385805    3.8112707    66697.641    443.12908 
15985000    501.25035   -274794.97            0   -272244.45   -595.08856    97.693894    98.410811    99.385805    4.0232521    66704.239    436.41424 
15986000    501.15782   -274798.74            0   -272248.69   -832.86519    97.693894    98.410811    99.385805    3.8212995    66711.005    429.70052 
15987000    499.09091   -274824.25            0   -272284.71   -795.91042    97.693894    98.410811    99.385805    4.6323547    66717.426    422.98458 
15988000    500.19998   -274793.18            0      -272248   -892.50843    97.693894    98.410811    99.385805    4.2700638    66723.741    416.26805 
15989000    498.99687   -274811.81            0   -272272.75   -852.04895    97.693894    98.410811    99.385805    3.7826787    66730.577     409.5548 
15990000    500.09073   -274788.22            0    -272243.6   -863.09526    97.693894    98.410811    99.385805    4.4096812    66737.828    402.84403 
15991000    499.55842   -274802.71            0   -272260.79   -671.86585    97.693894    98.410811    99.385805    4.2945223    66744.418    396.12923 
15992000    497.66586   -274803.02            0   -272270.74   -849.67501    97.693894    98.410811    99.385805    3.9212121     66751.37    389.41656 
15993000    499.89315   -274795.15            0   -272251.53   -733.60759    97.693894    98.410811    99.385805     3.996683    66757.782    382.70075 
15994000    499.72286   -274804.09            0   -272261.34   -774.56858    97.693894    98.410811    99.385805    3.6325454    66764.116    375.98457 
15995000    499.69363   -274815.86            0   -272273.25   -855.13992    97.693894    98.410811    99.385805    4.0498406     66770.86    369.27072 
15996000    501.03867   -274794.71            0   -272245.26    -575.5424    97.693894    98.410811    99.385805    3.8102094    66778.195    362.56008 
15997000    500.85378   -274808.66            0   -272260.15   -561.65134    97.693894    98.410811    99.385805    4.0725808    66784.744    355.84512 
15998000    501.42283   -274784.59            0   -272233.18   -499.87092    97.693894    98.410811    99.385805    4.6157838    66791.599     349.1318 
15999000    499.79032    -274810.8            0    -272267.7   -740.73128    97.693894    98.410811    99.385805    4.3283333     66797.92    342.41571 
16000000    500.02853   -274779.22            0   -272234.91   -765.46172    97.693894    98.410811    99.385805    3.9422796    66804.218    335.69959 
16001000    502.85709   -274833.37            0   -272274.67   -658.30825    97.693894    98.410811    99.385805    4.3729608    66811.088    328.98637 
16002000    502.84087    -274794.7            0   -272236.08   -495.27821    97.693894    98.410811    99.385805     3.955988    66818.406    322.27527 
16003000    497.48534   -274809.45            0   -272278.08   -673.67448    97.693894    98.410811    99.385805    4.0552996    66824.964    315.56047 
16004000    502.23652   -274796.87            0   -272241.32   -768.46067    97.693894    98.410811    99.385805    3.7867331    66831.761     308.8468 
16005000    498.03229   -274826.34            0   -272292.19   -721.71451    97.693894    98.410811    99.385805    5.2451082    66838.136     302.1312 
16006000    500.64939   -274802.36            0   -272254.89   -736.70175    97.693894    98.410811    99.385805    4.3926046    66844.464    295.41547 
16007000    502.71045    -274792.8            0   -272234.84   -835.11047    97.693894    98.410811    99.385805    4.0012327    66851.416    288.70251 
16008000    499.54064   -274805.38            0   -272263.55   -986.78131    97.693894    98.410811    99.385805    3.9631697     66858.69    281.99086 
16009000     499.7977   -274789.69            0   -272246.56   -745.84811    97.693894    98.410811    99.385805    4.4773672    66865.124    275.27564 
16010000    501.65131   -274798.34            0   -272245.78   -544.61496    97.693894    98.410811    99.385805    4.5060459    66871.951    268.56205 
16011000    498.59385   -274793.37            0   -272256.37   -614.48602    97.693894    98.410811    99.385805    3.9430493     66878.31    261.84661 
16012000    501.35554    -274797.3            0   -272246.24   -766.65112    97.693894    98.410811    99.385805    3.7199065     66884.67    255.13125 
16013000    499.68982   -274808.85            0   -272266.27   -644.62152    97.693894    98.410811    99.385805    3.9275674    66891.511    248.41774 
16014000    501.03901   -274811.16            0   -272261.71   -670.71141    97.693894    98.410811    99.385805    3.3363873    66898.816    241.70588 
16015000    504.02552   -274791.49            0   -272226.85   -587.68421    97.693894    98.410811    99.385805      5.73803    66905.227    234.99076 
16016000    496.66417    -274816.3            0   -272289.11   -581.75387    97.693894    98.410811    99.385805    3.6277062    66912.085    228.27723 
16017000    500.37278   -274792.24            0   -272246.18   -655.17043    97.693894    98.410811    99.385805    3.8352964    66918.412    221.56191 
16018000    495.33321   -274800.77            0   -272280.35   -993.65746    97.693894    98.410811    99.385805    3.7412607      66924.7    214.84655 
16019000     501.5413   -274791.83            0   -272239.82   -488.85949    97.693894    98.410811    99.385805    4.1394501    66931.565    208.13306 
16020000    502.66854   -274802.57            0   -272244.83   -648.26163    97.693894    98.410811    99.385805    4.2633772    66939.019    201.42132 
16021000    502.15315    -274803.5            0   -272248.38   -922.65032    97.693894    98.410811    99.385805    4.1346598    66945.509    194.70662 
16022000     500.7701   -274794.22            0   -272246.14   -721.65198    97.693894    98.410811    99.385805    4.3333694    66952.371    187.99302 
16023000    503.48002   -274792.55            0   -272230.68   -555.05877    97.693894    98.410811    99.385805    4.1701646    66958.652    181.27781 
16024000    500.01932   -274798.57            0   -272254.31   -783.06547    97.693894    98.410811    99.385805    4.5806684    66964.922    174.56266 
16025000    496.42429   -274799.12            0   -272273.15    -689.9127    97.693894    98.410811    99.385805    4.9144671    66971.796    167.84911 
16026000      498.336   -274789.49            0   -272253.79   -1000.2793    97.693894    98.410811    99.385805    3.9511123    66979.017    161.13637 
16027000      498.513   -274804.88            0   -272268.28   -667.14437    97.693894    98.410811    99.385805    3.6448604    66985.509    154.42184 
16028000    499.51075   -274775.18            0    -272233.5   -564.07533    97.693894    98.410811    99.385805    4.0370945    66992.406    147.70825 
16029000    498.19191   -274794.59            0   -272259.63   -703.23185    97.693894    98.410811    99.385805    3.9471805    66998.645    140.99324 
16030000    497.93635   -274793.75            0   -272260.09   -839.14619    97.693894    98.410811    99.385805    4.4622947    67005.059    134.27868 
16031000    500.65734    -274817.4            0   -272269.89   -856.93913    97.693894    98.410811    99.385805     3.961379     67011.94    127.56506 
16032000      499.478   -274808.01            0    -272266.5   -654.53775    97.693894    98.410811    99.385805    4.2404845    67019.252    120.85219 
16033000    502.32452   -274798.96            0   -272242.97   -751.13539    97.693894    98.410811    99.385805    3.7496374    67025.838    114.13796 
16034000    499.05255   -274787.52            0   -272248.17    -817.0425    97.693894    98.410811    99.385805    4.7394919     67032.64     107.4241 
16035000    496.30948   -274801.13            0   -272275.75   -716.11786    97.693894    98.410811    99.385805    3.8051063    67038.995    100.70956 
16036000    500.63956   -274776.35            0   -272228.93   -459.81605    97.693894    98.410811    99.385805    3.5719861    67045.428    93.995192 
16037000    501.25166   -274818.68            0   -272268.15   -1038.6749    97.693894    98.410811    99.385805    3.8029272    67052.298    87.281453 
16038000    500.06592   -274804.19            0    -272259.7   -711.65844    97.693894    98.410811    99.385805     3.949287    67059.531    80.568119 
16039000    500.77289   -274764.53            0   -272216.43   -797.38685    97.693894    98.410811    99.385805    4.0295534    67066.154    73.854009 
16040000    500.82793   -274802.07            0    -272253.7   -582.38534    97.693894    98.410811    99.385805    3.5912976    67072.935    67.140075 
16041000    498.49486    -274792.8            0    -272256.3   -869.52756    97.693894    98.410811    99.385805    4.0799143    67079.229    60.425689 
16042000    498.70852   -274800.81            0   -272263.21   -761.26645    97.693894    98.410811    99.385805    4.2057287     67085.58    53.711433 
16043000    502.20661    -274800.6            0   -272245.21   -776.63967    97.693894    98.410811    99.385805    4.1759597     67092.47    46.997627 
16044000    500.50112    -274807.5            0   -272260.79   -575.01557    97.693894    98.410811    99.385805    4.5101634    67099.701    40.283991 
16045000    506.95721   -274785.45            0   -272205.88   -832.27259    97.693894    98.410811    99.385805    4.2690144    67106.324    33.569947 
16046000    498.83629   -274804.88            0   -272266.64   -944.71821    97.693894    98.410811    99.385805    5.1942625    67113.167    26.856009 
16047000    505.32396   -274810.45            0    -272239.2    -726.3258    97.693894    98.410811    99.385805    4.7970494    67119.685    20.141948 
16048000    499.29192   -274805.48            0   -272264.92   -815.34461    97.693894    98.410811    99.385805    3.6857196    67126.111    13.427908 
16049000    501.85965   -274773.96            0   -272220.33   -733.25706    97.693894    98.410811    99.385805    4.3373511    67133.013    6.7139727 
16050000    502.28789   -274793.98            0   -272238.18    -533.7446    97.693894    98.410811    99.385805    3.9736748    67140.311            0 
Loop time of 67140.3 on 160 procs for 10000000 steps with 39366 atoms

Performance: 12.869 ns/day, 1.865 hours/ns, 148.942 timesteps/s
98.9% CPU use with 160 MPI tasks x 1 OpenMP threads

MPI task timing breakdown:
Section |  min time  |  avg time  |  max time  |%varavg| %total
---------------------------------------------------------------
Pair    | 13947      | 15001      | 16188      | 413.2 | 22.34
Kspace  | 43165      | 44311      | 46279      | 315.2 | 66.00
Neigh   | 395.76     | 415.84     | 435.96     |  43.2 |  0.62
Comm    | 5175.9     | 6070.1     | 7077.7     | 516.4 |  9.04
Output  | 221.48     | 221.53     | 221.54     |   0.0 |  0.33
Modify  | 853.6      | 957.2      | 1090.3     | 155.0 |  1.43
Other   |            | 163        |            |       |  0.24

Nlocal:    246.037 ave 260 max 227 min
Histogram: 2 0 6 17 29 31 36 26 9 4
Nghost:    3917.76 ave 3978 max 3863 min
Histogram: 3 10 19 23 27 32 27 15 3 1
Neighs:    58144.1 ave 64150 max 52281 min
Histogram: 2 9 19 23 33 20 34 10 8 2

Total # of neighbors = 9303054
Ave neighs/atom = 236.322
Neighbor list builds = 326445
Dangerous builds = 0

# Final Commands
variable        final_energy equal etotal
print           "final_energy: ${'final_energy'}"
ERROR on proc 0: Substitution for illegal variable 'final_energy' (../input.cpp:553)
Last command: final_energy: ${'final_energy'
