  54  54   1   0
  0.2002659E+02  0.1029096E-08  0.1023383E-08  0.1026927E-08  0.5000000E-15
   1.0000000000000000E-004
  CAR 
 unknown system                          
     11.12358205    -50.85808046  301      0.61252512      1.00000000
    -50.858  0.0000E+00  0.0000E+00
    -50.651  0.0000E+00  0.0000E+00
    -50.445  0.0000E+00  0.0000E+00
    -50.238  0.0000E+00  0.0000E+00
    -50.032  0.0000E+00  0.0000E+00
    -49.825  0.0000E+00  0.0000E+00
    -49.618  0.0000E+00  0.0000E+00
    -49.412  0.0000E+00  0.0000E+00
    -49.205  0.0000E+00  0.0000E+00
    -48.999  0.0000E+00  0.0000E+00
    -48.792  0.0000E+00  0.0000E+00
    -48.585  0.0000E+00  0.0000E+00
    -48.379  0.0000E+00  0.0000E+00
    -48.172  0.3647E-05  0.7535E-06
    -47.966  0.7020E-01  0.1450E-01
    -47.759  0.4735E-01  0.2429E-01
    -47.552  0.3456E-02  0.2500E-01
    -47.346  0.0000E+00  0.2500E-01
    -47.139  0.0000E+00  0.2500E-01
    -46.933  0.0000E+00  0.2500E-01
    -46.726  0.0000E+00  0.2500E-01
    -46.519  0.0000E+00  0.2500E-01
    -46.313  0.0000E+00  0.2500E-01
    -46.106  0.0000E+00  0.2500E-01
    -45.900  0.0000E+00  0.2500E-01
    -45.693  0.0000E+00  0.2500E-01
    -45.486  0.0000E+00  0.2500E-01
    -45.280  0.0000E+00  0.2500E-01
    -45.073  0.0000E+00  0.2500E-01
    -44.867  0.0000E+00  0.2500E-01
    -44.660  0.0000E+00  0.2500E-01
    -44.453  0.0000E+00  0.2500E-01
    -44.247  0.0000E+00  0.2500E-01
    -44.040  0.0000E+00  0.2500E-01
    -43.833  0.0000E+00  0.2500E-01
    -43.627  0.0000E+00  0.2500E-01
    -43.420  0.0000E+00  0.2500E-01
    -43.214  0.0000E+00  0.2500E-01
    -43.007  0.5475E-04  0.2501E-01
    -42.800  0.7663E-01  0.4084E-01
    -42.594  0.2330E+00  0.8898E-01
    -42.387  0.5613E-01  0.1006E+00
    -42.181  0.3396E-01  0.1076E+00
    -41.974  0.1164E-01  0.1100E+00
    -41.767  0.0000E+00  0.1100E+00
    -41.561  0.0000E+00  0.1100E+00
    -41.354  0.0000E+00  0.1100E+00
    -41.148  0.0000E+00  0.1100E+00
    -40.941  0.0000E+00  0.1100E+00
    -40.734  0.0000E+00  0.1100E+00
    -40.528  0.0000E+00  0.1100E+00
    -40.321  0.0000E+00  0.1100E+00
    -40.115  0.0000E+00  0.1100E+00
    -39.908  0.0000E+00  0.1100E+00
    -39.701  0.0000E+00  0.1100E+00
    -39.495  0.0000E+00  0.1100E+00
    -39.288  0.0000E+00  0.1100E+00
    -39.082  0.0000E+00  0.1100E+00
    -38.875  0.0000E+00  0.1100E+00
    -38.668  0.0000E+00  0.1100E+00
    -38.462  0.0000E+00  0.1100E+00
    -38.255  0.0000E+00  0.1100E+00
    -38.049  0.0000E+00  0.1100E+00
    -37.842  0.0000E+00  0.1100E+00
    -37.635  0.0000E+00  0.1100E+00
    -37.429  0.0000E+00  0.1100E+00
    -37.222  0.0000E+00  0.1100E+00
    -37.016  0.0000E+00  0.1100E+00
    -36.809  0.0000E+00  0.1100E+00
    -36.602  0.0000E+00  0.1100E+00
    -36.396  0.0000E+00  0.1100E+00
    -36.189  0.0000E+00  0.1100E+00
    -35.982  0.0000E+00  0.1100E+00
    -35.776  0.0000E+00  0.1100E+00
    -35.569  0.0000E+00  0.1100E+00
    -35.363  0.0000E+00  0.1100E+00
    -35.156  0.0000E+00  0.1100E+00
    -34.949  0.0000E+00  0.1100E+00
    -34.743  0.0000E+00  0.1100E+00
    -34.536  0.0000E+00  0.1100E+00
    -34.330  0.0000E+00  0.1100E+00
    -34.123  0.0000E+00  0.1100E+00
    -33.916  0.0000E+00  0.1100E+00
    -33.710  0.0000E+00  0.1100E+00
    -33.503  0.0000E+00  0.1100E+00
    -33.297  0.0000E+00  0.1100E+00
    -33.090  0.0000E+00  0.1100E+00
    -32.883  0.0000E+00  0.1100E+00
    -32.677  0.0000E+00  0.1100E+00
    -32.470  0.0000E+00  0.1100E+00
    -32.264  0.0000E+00  0.1100E+00
    -32.057  0.0000E+00  0.1100E+00
    -31.850  0.0000E+00  0.1100E+00
    -31.644  0.0000E+00  0.1100E+00
    -31.437  0.0000E+00  0.1100E+00
    -31.231  0.0000E+00  0.1100E+00
    -31.024  0.0000E+00  0.1100E+00
    -30.817  0.0000E+00  0.1100E+00
    -30.611  0.0000E+00  0.1100E+00
    -30.404  0.0000E+00  0.1100E+00
    -30.198  0.0000E+00  0.1100E+00
    -29.991  0.0000E+00  0.1100E+00
    -29.784  0.0000E+00  0.1100E+00
    -29.578  0.0000E+00  0.1100E+00
    -29.371  0.0000E+00  0.1100E+00
    -29.164  0.0000E+00  0.1100E+00
    -28.958  0.0000E+00  0.1100E+00
    -28.751  0.0000E+00  0.1100E+00
    -28.545  0.0000E+00  0.1100E+00
    -28.338  0.0000E+00  0.1100E+00
    -28.131  0.0000E+00  0.1100E+00
    -27.925  0.0000E+00  0.1100E+00
    -27.718  0.0000E+00  0.1100E+00
    -27.512  0.0000E+00  0.1100E+00
    -27.305  0.0000E+00  0.1100E+00
    -27.098  0.0000E+00  0.1100E+00
    -26.892  0.1151E-03  0.1100E+00
    -26.685  0.2084E+00  0.1531E+00
    -26.479  0.1442E+00  0.1829E+00
    -26.272  0.1036E-01  0.1850E+00
    -26.065  0.0000E+00  0.1850E+00
    -25.859  0.0000E+00  0.1850E+00
    -25.652  0.0000E+00  0.1850E+00
    -25.446  0.0000E+00  0.1850E+00
    -25.239  0.0000E+00  0.1850E+00
    -25.032  0.0000E+00  0.1850E+00
    -24.826  0.0000E+00  0.1850E+00
    -24.619  0.0000E+00  0.1850E+00
    -24.413  0.0000E+00  0.1850E+00
    -24.206  0.0000E+00  0.1850E+00
    -23.999  0.0000E+00  0.1850E+00
    -23.793  0.0000E+00  0.1850E+00
    -23.586  0.0000E+00  0.1850E+00
    -23.380  0.0000E+00  0.1850E+00
    -23.173  0.0000E+00  0.1850E+00
    -22.966  0.0000E+00  0.1850E+00
    -22.760  0.0000E+00  0.1850E+00
    -22.553  0.0000E+00  0.1850E+00
    -22.347  0.0000E+00  0.1850E+00
    -22.140  0.0000E+00  0.1850E+00
    -21.933  0.0000E+00  0.1850E+00
    -21.727  0.0000E+00  0.1850E+00
    -21.520  0.0000E+00  0.1850E+00
    -21.313  0.0000E+00  0.1850E+00
    -21.107  0.0000E+00  0.1850E+00
    -20.900  0.0000E+00  0.1850E+00
    -20.694  0.0000E+00  0.1850E+00
    -20.487  0.0000E+00  0.1850E+00
    -20.280  0.0000E+00  0.1850E+00
    -20.074  0.0000E+00  0.1850E+00
    -19.867  0.0000E+00  0.1850E+00
    -19.661  0.0000E+00  0.1850E+00
    -19.454  0.0000E+00  0.1850E+00
    -19.247  0.0000E+00  0.1850E+00
    -19.041  0.0000E+00  0.1850E+00
    -18.834  0.0000E+00  0.1850E+00
    -18.628  0.0000E+00  0.1850E+00
    -18.421  0.0000E+00  0.1850E+00
    -18.214  0.0000E+00  0.1850E+00
    -18.008  0.0000E+00  0.1850E+00
    -17.801  0.0000E+00  0.1850E+00
    -17.595  0.0000E+00  0.1850E+00
    -17.388  0.0000E+00  0.1850E+00
    -17.181  0.0000E+00  0.1850E+00
    -16.975  0.0000E+00  0.1850E+00
    -16.768  0.0000E+00  0.1850E+00
    -16.562  0.0000E+00  0.1850E+00
    -16.355  0.0000E+00  0.1850E+00
    -16.148  0.0000E+00  0.1850E+00
    -15.942  0.0000E+00  0.1850E+00
    -15.735  0.0000E+00  0.1850E+00
    -15.529  0.0000E+00  0.1850E+00
    -15.322  0.0000E+00  0.1850E+00
    -15.115  0.0000E+00  0.1850E+00
    -14.909  0.0000E+00  0.1850E+00
    -14.702  0.0000E+00  0.1850E+00
    -14.496  0.0000E+00  0.1850E+00
    -14.289  0.0000E+00  0.1850E+00
    -14.082  0.0000E+00  0.1850E+00
    -13.876  0.1544E-07  0.1850E+00
    -13.669  0.1790E-01  0.1887E+00
    -13.462  0.2663E-01  0.1942E+00
    -13.256  0.7082E-01  0.2088E+00
    -13.049  0.1465E+00  0.2391E+00
    -12.843  0.1474E+00  0.2696E+00
    -12.636  0.1800E+00  0.3067E+00
    -12.429  0.4798E-01  0.3166E+00
    -12.223  0.7466E-01  0.3321E+00
    -12.016  0.2636E-01  0.3375E+00
    -11.810  0.3618E-01  0.3450E+00
    -11.603  0.1495E-04  0.3450E+00
    -11.396  0.0000E+00  0.3450E+00
    -11.190  0.0000E+00  0.3450E+00
    -10.983  0.0000E+00  0.3450E+00
    -10.777  0.0000E+00  0.3450E+00
    -10.570  0.0000E+00  0.3450E+00
    -10.363  0.0000E+00  0.3450E+00
    -10.157  0.0000E+00  0.3450E+00
     -9.950  0.0000E+00  0.3450E+00
     -9.744  0.0000E+00  0.3450E+00
     -9.537  0.0000E+00  0.3450E+00
     -9.330  0.0000E+00  0.3450E+00
     -9.124  0.0000E+00  0.3450E+00
     -8.917  0.0000E+00  0.3450E+00
     -8.711  0.0000E+00  0.3450E+00
     -8.504  0.0000E+00  0.3450E+00
     -8.297  0.0000E+00  0.3450E+00
     -8.091  0.0000E+00  0.3450E+00
     -7.884  0.0000E+00  0.3450E+00
     -7.678  0.0000E+00  0.3450E+00
     -7.471  0.0000E+00  0.3450E+00
     -7.264  0.0000E+00  0.3450E+00
     -7.058  0.0000E+00  0.3450E+00
     -6.851  0.0000E+00  0.3450E+00
     -6.644  0.0000E+00  0.3450E+00
     -6.438  0.0000E+00  0.3450E+00
     -6.231  0.0000E+00  0.3450E+00
     -6.025  0.0000E+00  0.3450E+00
     -5.818  0.0000E+00  0.3450E+00
     -5.611  0.0000E+00  0.3450E+00
     -5.405  0.0000E+00  0.3450E+00
     -5.198  0.0000E+00  0.3450E+00
     -4.992  0.0000E+00  0.3450E+00
     -4.785  0.0000E+00  0.3450E+00
     -4.578  0.0000E+00  0.3450E+00
     -4.372  0.0000E+00  0.3450E+00
     -4.165  0.0000E+00  0.3450E+00
     -3.959  0.0000E+00  0.3450E+00
     -3.752  0.0000E+00  0.3450E+00
     -3.545  0.0000E+00  0.3450E+00
     -3.339  0.1139E-07  0.3450E+00
     -3.132  0.8244E-02  0.3467E+00
     -2.926  0.6610E-01  0.3604E+00
     -2.719  0.6909E-01  0.3746E+00
     -2.512  0.1696E+00  0.4097E+00
     -2.306  0.1674E+00  0.4443E+00
     -2.099  0.1421E+00  0.4736E+00
     -1.893  0.1327E+00  0.5010E+00
     -1.686  0.1331E+00  0.5285E+00
     -1.479  0.1308E+00  0.5555E+00
     -1.273  0.1312E+00  0.5827E+00
     -1.066  0.1612E+00  0.6160E+00
     -0.860  0.1719E+00  0.6515E+00
     -0.653  0.1659E+00  0.6857E+00
     -0.446  0.1859E+00  0.7242E+00
     -0.240  0.1972E+00  0.7649E+00
     -0.033  0.1493E+00  0.7957E+00
      0.173  0.9377E-01  0.8151E+00
      0.380  0.4773E-01  0.8250E+00
      0.587  0.9912E-04  0.8250E+00
      0.793  0.0000E+00  0.8250E+00
      1.000  0.0000E+00  0.8250E+00
      1.207  0.0000E+00  0.8250E+00
      1.413  0.0000E+00  0.8250E+00
      1.620  0.0000E+00  0.8250E+00
      1.826  0.0000E+00  0.8250E+00
      2.033  0.0000E+00  0.8250E+00
      2.240  0.0000E+00  0.8250E+00
      2.446  0.0000E+00  0.8250E+00
      2.653  0.0000E+00  0.8250E+00
      2.859  0.0000E+00  0.8250E+00
      3.066  0.0000E+00  0.8250E+00
      3.273  0.0000E+00  0.8250E+00
      3.479  0.2024E-05  0.8250E+00
      3.686  0.2974E-01  0.8311E+00
      3.892  0.5747E-01  0.8430E+00
      4.099  0.9568E-01  0.8628E+00
      4.306  0.1779E+00  0.8995E+00
      4.512  0.2237E-02  0.9000E+00
      4.719  0.0000E+00  0.9000E+00
      4.925  0.1511E-17  0.9000E+00
      5.132  0.7306E-04  0.9000E+00
      5.339  0.2522E-01  0.9052E+00
      5.545  0.9239E-01  0.9243E+00
      5.752  0.1066E+00  0.9463E+00
      5.958  0.1777E-01  0.9500E+00
      6.165  0.5106E-08  0.9500E+00
      6.372  0.1973E-02  0.9504E+00
      6.578  0.1052E-02  0.9506E+00
      6.785  0.2719E-13  0.9506E+00
      6.991  0.9141E-03  0.9508E+00
      7.198  0.1705E-01  0.9543E+00
      7.405  0.2325E-01  0.9591E+00
      7.611  0.3985E-01  0.9674E+00
      7.818  0.4496E-01  0.9767E+00
      8.024  0.7064E-01  0.9913E+00
      8.231  0.3779E-01  0.9991E+00
      8.438  0.4519E-02  0.1000E+01
      8.644  0.3029E-06  0.1000E+01
      8.851  0.0000E+00  0.1000E+01
      9.058  0.0000E+00  0.1000E+01
      9.264  0.0000E+00  0.1000E+01
      9.471  0.0000E+00  0.1000E+01
      9.677  0.0000E+00  0.1000E+01
      9.884  0.0000E+00  0.1000E+01
     10.091  0.0000E+00  0.1000E+01
     10.297  0.0000E+00  0.1000E+01
     10.504  0.0000E+00  0.1000E+01
     10.710  0.0000E+00  0.1000E+01
     10.917  0.0000E+00  0.1000E+01
     11.124  0.0000E+00  0.1000E+01
     11.12358205    -50.85808046  301      0.61252512      1.00000000
    -50.858  0.0000E+00  0.0000E+00  0.0000E+00  0.0000E+00  0.0000E+00  0.0000E+00  0.0000E+00  0.0000E+00  0.0000E+00
    -50.651  0.0000E+00  0.0000E+00  0.0000E+00  0.0000E+00  0.0000E+00  0.0000E+00  0.0000E+00  0.0000E+00  0.0000E+00
    -50.445  0.0000E+00  0.0000E+00  0.0000E+00  0.0000E+00  0.0000E+00  0.0000E+00  0.0000E+00  0.0000E+00  0.0000E+00
    -50.238  0.0000E+00  0.0000E+00  0.0000E+00  0.0000E+00  0.0000E+00  0.0000E+00  0.0000E+00  0.0000E+00  0.0000E+00
    -50.032  0.0000E+00  0.0000E+00  0.0000E+00  0.0000E+00  0.0000E+00  0.0000E+00  0.0000E+00  0.0000E+00  0.0000E+00
    -49.825  0.0000E+00  0.0000E+00  0.0000E+00  0.0000E+00  0.0000E+00  0.0000E+00  0.0000E+00  0.0000E+00  0.0000E+00
    -49.618  0.0000E+00  0.0000E+00  0.0000E+00  0.0000E+00  0.0000E+00  0.0000E+00  0.0000E+00  0.0000E+00  0.0000E+00
    -49.412  0.0000E+00  0.0000E+00  0.0000E+00  0.0000E+00  0.0000E+00  0.0000E+00  0.0000E+00  0.0000E+00  0.0000E+00
    -49.205  0.0000E+00  0.0000E+00  0.0000E+00  0.0000E+00  0.0000E+00  0.0000E+00  0.0000E+00  0.0000E+00  0.0000E+00
    -48.999  0.0000E+00  0.0000E+00  0.0000E+00  0.0000E+00  0.0000E+00  0.0000E+00  0.0000E+00  0.0000E+00  0.0000E+00
    -48.792  0.0000E+00  0.0000E+00  0.0000E+00  0.0000E+00  0.0000E+00  0.0000E+00  0.0000E+00  0.0000E+00  0.0000E+00
    -48.585  0.0000E+00  0.0000E+00  0.0000E+00  0.0000E+00  0.0000E+00  0.0000E+00  0.0000E+00  0.0000E+00  0.0000E+00
    -48.379  0.0000E+00  0.0000E+00  0.0000E+00  0.0000E+00  0.0000E+00  0.0000E+00  0.0000E+00  0.0000E+00  0.0000E+00
    -48.172  0.8194E-13  0.7346E-14  0.1342E-13  0.1603E-13  0.0000E+00  0.0000E+00  0.0000E+00  0.0000E+00  0.0000E+00
    -47.966  0.3510E-08  0.1288E-09  0.3164E-09  0.6982E-09  0.0000E+00  0.0000E+00  0.0000E+00  0.0000E+00  0.0000E+00
    -47.759  0.3014E-08  0.2313E-09  0.2473E-09  0.8901E-10  0.0000E+00  0.0000E+00  0.0000E+00  0.0000E+00  0.0000E+00
    -47.552  0.2025E-09  0.1247E-10  0.2636E-10  0.3800E-11  0.0000E+00  0.0000E+00  0.0000E+00  0.0000E+00  0.0000E+00
    -47.346  0.0000E+00  0.0000E+00  0.0000E+00  0.0000E+00  0.0000E+00  0.0000E+00  0.0000E+00  0.0000E+00  0.0000E+00
    -47.139  0.0000E+00  0.0000E+00  0.0000E+00  0.0000E+00  0.0000E+00  0.0000E+00  0.0000E+00  0.0000E+00  0.0000E+00
    -46.933  0.0000E+00  0.0000E+00  0.0000E+00  0.0000E+00  0.0000E+00  0.0000E+00  0.0000E+00  0.0000E+00  0.0000E+00
    -46.726  0.0000E+00  0.0000E+00  0.0000E+00  0.0000E+00  0.0000E+00  0.0000E+00  0.0000E+00  0.0000E+00  0.0000E+00
    -46.519  0.0000E+00  0.0000E+00  0.0000E+00  0.0000E+00  0.0000E+00  0.0000E+00  0.0000E+00  0.0000E+00  0.0000E+00
    -46.313  0.0000E+00  0.0000E+00  0.0000E+00  0.0000E+00  0.0000E+00  0.0000E+00  0.0000E+00  0.0000E+00  0.0000E+00
    -46.106  0.0000E+00  0.0000E+00  0.0000E+00  0.0000E+00  0.0000E+00  0.0000E+00  0.0000E+00  0.0000E+00  0.0000E+00
    -45.900  0.0000E+00  0.0000E+00  0.0000E+00  0.0000E+00  0.0000E+00  0.0000E+00  0.0000E+00  0.0000E+00  0.0000E+00
    -45.693  0.0000E+00  0.0000E+00  0.0000E+00  0.0000E+00  0.0000E+00  0.0000E+00  0.0000E+00  0.0000E+00  0.0000E+00
    -45.486  0.0000E+00  0.0000E+00  0.0000E+00  0.0000E+00  0.0000E+00  0.0000E+00  0.0000E+00  0.0000E+00  0.0000E+00
    -45.280  0.0000E+00  0.0000E+00  0.0000E+00  0.0000E+00  0.0000E+00  0.0000E+00  0.0000E+00  0.0000E+00  0.0000E+00
    -45.073  0.0000E+00  0.0000E+00  0.0000E+00  0.0000E+00  0.0000E+00  0.0000E+00  0.0000E+00  0.0000E+00  0.0000E+00
    -44.867  0.0000E+00  0.0000E+00  0.0000E+00  0.0000E+00  0.0000E+00  0.0000E+00  0.0000E+00  0.0000E+00  0.0000E+00
    -44.660  0.0000E+00  0.0000E+00  0.0000E+00  0.0000E+00  0.0000E+00  0.0000E+00  0.0000E+00  0.0000E+00  0.0000E+00
    -44.453  0.0000E+00  0.0000E+00  0.0000E+00  0.0000E+00  0.0000E+00  0.0000E+00  0.0000E+00  0.0000E+00  0.0000E+00
    -44.247  0.0000E+00  0.0000E+00  0.0000E+00  0.0000E+00  0.0000E+00  0.0000E+00  0.0000E+00  0.0000E+00  0.0000E+00
    -44.040  0.0000E+00  0.0000E+00  0.0000E+00  0.0000E+00  0.0000E+00  0.0000E+00  0.0000E+00  0.0000E+00  0.0000E+00
    -43.833  0.0000E+00  0.0000E+00  0.0000E+00  0.0000E+00  0.0000E+00  0.0000E+00  0.0000E+00  0.0000E+00  0.0000E+00
    -43.627  0.0000E+00  0.0000E+00  0.0000E+00  0.0000E+00  0.0000E+00  0.0000E+00  0.0000E+00  0.0000E+00  0.0000E+00
    -43.420  0.0000E+00  0.0000E+00  0.0000E+00  0.0000E+00  0.0000E+00  0.0000E+00  0.0000E+00  0.0000E+00  0.0000E+00
    -43.214  0.0000E+00  0.0000E+00  0.0000E+00  0.0000E+00  0.0000E+00  0.0000E+00  0.0000E+00  0.0000E+00  0.0000E+00
    -43.007  0.6617E-06  0.4815E-11  0.3277E-11  0.2225E-11  0.0000E+00  0.0000E+00  0.0000E+00  0.0000E+00  0.0000E+00
    -42.800  0.6874E+01  0.4292E-05  0.4859E-05  0.2775E-05  0.0000E+00  0.0000E+00  0.0000E+00  0.0000E+00  0.0000E+00
    -42.594  0.2704E+01  0.1699E-05  0.1922E-05  0.1098E-05  0.0000E+00  0.0000E+00  0.0000E+00  0.0000E+00  0.0000E+00
    -42.387  0.2314E-06  0.1137E-08  0.4652E-08  0.2029E-08  0.0000E+00  0.0000E+00  0.0000E+00  0.0000E+00  0.0000E+00
    -42.181  0.2686E-07  0.1344E-08  0.2896E-08  0.4719E-09  0.0000E+00  0.0000E+00  0.0000E+00  0.0000E+00  0.0000E+00
    -41.974  0.3882E-08  0.3068E-09  0.1452E-08  0.7882E-10  0.0000E+00  0.0000E+00  0.0000E+00  0.0000E+00  0.0000E+00
    -41.767  0.0000E+00  0.0000E+00  0.0000E+00  0.0000E+00  0.0000E+00  0.0000E+00  0.0000E+00  0.0000E+00  0.0000E+00
    -41.561  0.0000E+00  0.0000E+00  0.0000E+00  0.0000E+00  0.0000E+00  0.0000E+00  0.0000E+00  0.0000E+00  0.0000E+00
    -41.354  0.0000E+00  0.0000E+00  0.0000E+00  0.0000E+00  0.0000E+00  0.0000E+00  0.0000E+00  0.0000E+00  0.0000E+00
    -41.148  0.0000E+00  0.0000E+00  0.0000E+00  0.0000E+00  0.0000E+00  0.0000E+00  0.0000E+00  0.0000E+00  0.0000E+00
    -40.941  0.0000E+00  0.0000E+00  0.0000E+00  0.0000E+00  0.0000E+00  0.0000E+00  0.0000E+00  0.0000E+00  0.0000E+00
    -40.734  0.0000E+00  0.0000E+00  0.0000E+00  0.0000E+00  0.0000E+00  0.0000E+00  0.0000E+00  0.0000E+00  0.0000E+00
    -40.528  0.0000E+00  0.0000E+00  0.0000E+00  0.0000E+00  0.0000E+00  0.0000E+00  0.0000E+00  0.0000E+00  0.0000E+00
    -40.321  0.0000E+00  0.0000E+00  0.0000E+00  0.0000E+00  0.0000E+00  0.0000E+00  0.0000E+00  0.0000E+00  0.0000E+00
    -40.115  0.0000E+00  0.0000E+00  0.0000E+00  0.0000E+00  0.0000E+00  0.0000E+00  0.0000E+00  0.0000E+00  0.0000E+00
    -39.908  0.0000E+00  0.0000E+00  0.0000E+00  0.0000E+00  0.0000E+00  0.0000E+00  0.0000E+00  0.0000E+00  0.0000E+00
    -39.701  0.0000E+00  0.0000E+00  0.0000E+00  0.0000E+00  0.0000E+00  0.0000E+00  0.0000E+00  0.0000E+00  0.0000E+00
    -39.495  0.0000E+00  0.0000E+00  0.0000E+00  0.0000E+00  0.0000E+00  0.0000E+00  0.0000E+00  0.0000E+00  0.0000E+00
    -39.288  0.0000E+00  0.0000E+00  0.0000E+00  0.0000E+00  0.0000E+00  0.0000E+00  0.0000E+00  0.0000E+00  0.0000E+00
    -39.082  0.0000E+00  0.0000E+00  0.0000E+00  0.0000E+00  0.0000E+00  0.0000E+00  0.0000E+00  0.0000E+00  0.0000E+00
    -38.875  0.0000E+00  0.0000E+00  0.0000E+00  0.0000E+00  0.0000E+00  0.0000E+00  0.0000E+00  0.0000E+00  0.0000E+00
    -38.668  0.0000E+00  0.0000E+00  0.0000E+00  0.0000E+00  0.0000E+00  0.0000E+00  0.0000E+00  0.0000E+00  0.0000E+00
    -38.462  0.0000E+00  0.0000E+00  0.0000E+00  0.0000E+00  0.0000E+00  0.0000E+00  0.0000E+00  0.0000E+00  0.0000E+00
    -38.255  0.0000E+00  0.0000E+00  0.0000E+00  0.0000E+00  0.0000E+00  0.0000E+00  0.0000E+00  0.0000E+00  0.0000E+00
    -38.049  0.0000E+00  0.0000E+00  0.0000E+00  0.0000E+00  0.0000E+00  0.0000E+00  0.0000E+00  0.0000E+00  0.0000E+00
    -37.842  0.0000E+00  0.0000E+00  0.0000E+00  0.0000E+00  0.0000E+00  0.0000E+00  0.0000E+00  0.0000E+00  0.0000E+00
    -37.635  0.0000E+00  0.0000E+00  0.0000E+00  0.0000E+00  0.0000E+00  0.0000E+00  0.0000E+00  0.0000E+00  0.0000E+00
    -37.429  0.0000E+00  0.0000E+00  0.0000E+00  0.0000E+00  0.0000E+00  0.0000E+00  0.0000E+00  0.0000E+00  0.0000E+00
    -37.222  0.0000E+00  0.0000E+00  0.0000E+00  0.0000E+00  0.0000E+00  0.0000E+00  0.0000E+00  0.0000E+00  0.0000E+00
    -37.016  0.0000E+00  0.0000E+00  0.0000E+00  0.0000E+00  0.0000E+00  0.0000E+00  0.0000E+00  0.0000E+00  0.0000E+00
    -36.809  0.0000E+00  0.0000E+00  0.0000E+00  0.0000E+00  0.0000E+00  0.0000E+00  0.0000E+00  0.0000E+00  0.0000E+00
    -36.602  0.0000E+00  0.0000E+00  0.0000E+00  0.0000E+00  0.0000E+00  0.0000E+00  0.0000E+00  0.0000E+00  0.0000E+00
    -36.396  0.0000E+00  0.0000E+00  0.0000E+00  0.0000E+00  0.0000E+00  0.0000E+00  0.0000E+00  0.0000E+00  0.0000E+00
    -36.189  0.0000E+00  0.0000E+00  0.0000E+00  0.0000E+00  0.0000E+00  0.0000E+00  0.0000E+00  0.0000E+00  0.0000E+00
    -35.982  0.0000E+00  0.0000E+00  0.0000E+00  0.0000E+00  0.0000E+00  0.0000E+00  0.0000E+00  0.0000E+00  0.0000E+00
    -35.776  0.0000E+00  0.0000E+00  0.0000E+00  0.0000E+00  0.0000E+00  0.0000E+00  0.0000E+00  0.0000E+00  0.0000E+00
    -35.569  0.0000E+00  0.0000E+00  0.0000E+00  0.0000E+00  0.0000E+00  0.0000E+00  0.0000E+00  0.0000E+00  0.0000E+00
    -35.363  0.0000E+00  0.0000E+00  0.0000E+00  0.0000E+00  0.0000E+00  0.0000E+00  0.0000E+00  0.0000E+00  0.0000E+00
    -35.156  0.0000E+00  0.0000E+00  0.0000E+00  0.0000E+00  0.0000E+00  0.0000E+00  0.0000E+00  0.0000E+00  0.0000E+00
    -34.949  0.0000E+00  0.0000E+00  0.0000E+00  0.0000E+00  0.0000E+00  0.0000E+00  0.0000E+00  0.0000E+00  0.0000E+00
    -34.743  0.0000E+00  0.0000E+00  0.0000E+00  0.0000E+00  0.0000E+00  0.0000E+00  0.0000E+00  0.0000E+00  0.0000E+00
    -34.536  0.0000E+00  0.0000E+00  0.0000E+00  0.0000E+00  0.0000E+00  0.0000E+00  0.0000E+00  0.0000E+00  0.0000E+00
    -34.330  0.0000E+00  0.0000E+00  0.0000E+00  0.0000E+00  0.0000E+00  0.0000E+00  0.0000E+00  0.0000E+00  0.0000E+00
    -34.123  0.0000E+00  0.0000E+00  0.0000E+00  0.0000E+00  0.0000E+00  0.0000E+00  0.0000E+00  0.0000E+00  0.0000E+00
    -33.916  0.0000E+00  0.0000E+00  0.0000E+00  0.0000E+00  0.0000E+00  0.0000E+00  0.0000E+00  0.0000E+00  0.0000E+00
    -33.710  0.0000E+00  0.0000E+00  0.0000E+00  0.0000E+00  0.0000E+00  0.0000E+00  0.0000E+00  0.0000E+00  0.0000E+00
    -33.503  0.0000E+00  0.0000E+00  0.0000E+00  0.0000E+00  0.0000E+00  0.0000E+00  0.0000E+00  0.0000E+00  0.0000E+00
    -33.297  0.0000E+00  0.0000E+00  0.0000E+00  0.0000E+00  0.0000E+00  0.0000E+00  0.0000E+00  0.0000E+00  0.0000E+00
    -33.090  0.0000E+00  0.0000E+00  0.0000E+00  0.0000E+00  0.0000E+00  0.0000E+00  0.0000E+00  0.0000E+00  0.0000E+00
    -32.883  0.0000E+00  0.0000E+00  0.0000E+00  0.0000E+00  0.0000E+00  0.0000E+00  0.0000E+00  0.0000E+00  0.0000E+00
    -32.677  0.0000E+00  0.0000E+00  0.0000E+00  0.0000E+00  0.0000E+00  0.0000E+00  0.0000E+00  0.0000E+00  0.0000E+00
    -32.470  0.0000E+00  0.0000E+00  0.0000E+00  0.0000E+00  0.0000E+00  0.0000E+00  0.0000E+00  0.0000E+00  0.0000E+00
    -32.264  0.0000E+00  0.0000E+00  0.0000E+00  0.0000E+00  0.0000E+00  0.0000E+00  0.0000E+00  0.0000E+00  0.0000E+00
    -32.057  0.0000E+00  0.0000E+00  0.0000E+00  0.0000E+00  0.0000E+00  0.0000E+00  0.0000E+00  0.0000E+00  0.0000E+00
    -31.850  0.0000E+00  0.0000E+00  0.0000E+00  0.0000E+00  0.0000E+00  0.0000E+00  0.0000E+00  0.0000E+00  0.0000E+00
    -31.644  0.0000E+00  0.0000E+00  0.0000E+00  0.0000E+00  0.0000E+00  0.0000E+00  0.0000E+00  0.0000E+00  0.0000E+00
    -31.437  0.0000E+00  0.0000E+00  0.0000E+00  0.0000E+00  0.0000E+00  0.0000E+00  0.0000E+00  0.0000E+00  0.0000E+00
    -31.231  0.0000E+00  0.0000E+00  0.0000E+00  0.0000E+00  0.0000E+00  0.0000E+00  0.0000E+00  0.0000E+00  0.0000E+00
    -31.024  0.0000E+00  0.0000E+00  0.0000E+00  0.0000E+00  0.0000E+00  0.0000E+00  0.0000E+00  0.0000E+00  0.0000E+00
    -30.817  0.0000E+00  0.0000E+00  0.0000E+00  0.0000E+00  0.0000E+00  0.0000E+00  0.0000E+00  0.0000E+00  0.0000E+00
    -30.611  0.0000E+00  0.0000E+00  0.0000E+00  0.0000E+00  0.0000E+00  0.0000E+00  0.0000E+00  0.0000E+00  0.0000E+00
    -30.404  0.0000E+00  0.0000E+00  0.0000E+00  0.0000E+00  0.0000E+00  0.0000E+00  0.0000E+00  0.0000E+00  0.0000E+00
    -30.198  0.0000E+00  0.0000E+00  0.0000E+00  0.0000E+00  0.0000E+00  0.0000E+00  0.0000E+00  0.0000E+00  0.0000E+00
    -29.991  0.0000E+00  0.0000E+00  0.0000E+00  0.0000E+00  0.0000E+00  0.0000E+00  0.0000E+00  0.0000E+00  0.0000E+00
    -29.784  0.0000E+00  0.0000E+00  0.0000E+00  0.0000E+00  0.0000E+00  0.0000E+00  0.0000E+00  0.0000E+00  0.0000E+00
    -29.578  0.0000E+00  0.0000E+00  0.0000E+00  0.0000E+00  0.0000E+00  0.0000E+00  0.0000E+00  0.0000E+00  0.0000E+00
    -29.371  0.0000E+00  0.0000E+00  0.0000E+00  0.0000E+00  0.0000E+00  0.0000E+00  0.0000E+00  0.0000E+00  0.0000E+00
    -29.164  0.0000E+00  0.0000E+00  0.0000E+00  0.0000E+00  0.0000E+00  0.0000E+00  0.0000E+00  0.0000E+00  0.0000E+00
    -28.958  0.0000E+00  0.0000E+00  0.0000E+00  0.0000E+00  0.0000E+00  0.0000E+00  0.0000E+00  0.0000E+00  0.0000E+00
    -28.751  0.0000E+00  0.0000E+00  0.0000E+00  0.0000E+00  0.0000E+00  0.0000E+00  0.0000E+00  0.0000E+00  0.0000E+00
    -28.545  0.0000E+00  0.0000E+00  0.0000E+00  0.0000E+00  0.0000E+00  0.0000E+00  0.0000E+00  0.0000E+00  0.0000E+00
    -28.338  0.0000E+00  0.0000E+00  0.0000E+00  0.0000E+00  0.0000E+00  0.0000E+00  0.0000E+00  0.0000E+00  0.0000E+00
    -28.131  0.0000E+00  0.0000E+00  0.0000E+00  0.0000E+00  0.0000E+00  0.0000E+00  0.0000E+00  0.0000E+00  0.0000E+00
    -27.925  0.0000E+00  0.0000E+00  0.0000E+00  0.0000E+00  0.0000E+00  0.0000E+00  0.0000E+00  0.0000E+00  0.0000E+00
    -27.718  0.0000E+00  0.0000E+00  0.0000E+00  0.0000E+00  0.0000E+00  0.0000E+00  0.0000E+00  0.0000E+00  0.0000E+00
    -27.512  0.0000E+00  0.0000E+00  0.0000E+00  0.0000E+00  0.0000E+00  0.0000E+00  0.0000E+00  0.0000E+00  0.0000E+00
    -27.305  0.0000E+00  0.0000E+00  0.0000E+00  0.0000E+00  0.0000E+00  0.0000E+00  0.0000E+00  0.0000E+00  0.0000E+00
    -27.098  0.0000E+00  0.0000E+00  0.0000E+00  0.0000E+00  0.0000E+00  0.0000E+00  0.0000E+00  0.0000E+00  0.0000E+00
    -26.892  0.2456E-09  0.1065E-10  0.9895E-11  0.1921E-10  0.0000E+00  0.0000E+00  0.0000E+00  0.0000E+00  0.0000E+00
    -26.685  0.6309E-06  0.2122E-07  0.2234E-07  0.5043E-07  0.0000E+00  0.0000E+00  0.0000E+00  0.0000E+00  0.0000E+00
    -26.479  0.5224E-06  0.3045E-07  0.2971E-07  0.2024E-07  0.0000E+00  0.0000E+00  0.0000E+00  0.0000E+00  0.0000E+00
    -26.272  0.2222E-07  0.1293E-08  0.1307E-08  0.7926E-09  0.0000E+00  0.0000E+00  0.0000E+00  0.0000E+00  0.0000E+00
    -26.065  0.0000E+00  0.0000E+00  0.0000E+00  0.0000E+00  0.0000E+00  0.0000E+00  0.0000E+00  0.0000E+00  0.0000E+00
    -25.859  0.0000E+00  0.0000E+00  0.0000E+00  0.0000E+00  0.0000E+00  0.0000E+00  0.0000E+00  0.0000E+00  0.0000E+00
    -25.652  0.0000E+00  0.0000E+00  0.0000E+00  0.0000E+00  0.0000E+00  0.0000E+00  0.0000E+00  0.0000E+00  0.0000E+00
    -25.446  0.0000E+00  0.0000E+00  0.0000E+00  0.0000E+00  0.0000E+00  0.0000E+00  0.0000E+00  0.0000E+00  0.0000E+00
    -25.239  0.0000E+00  0.0000E+00  0.0000E+00  0.0000E+00  0.0000E+00  0.0000E+00  0.0000E+00  0.0000E+00  0.0000E+00
    -25.032  0.0000E+00  0.0000E+00  0.0000E+00  0.0000E+00  0.0000E+00  0.0000E+00  0.0000E+00  0.0000E+00  0.0000E+00
    -24.826  0.0000E+00  0.0000E+00  0.0000E+00  0.0000E+00  0.0000E+00  0.0000E+00  0.0000E+00  0.0000E+00  0.0000E+00
    -24.619  0.0000E+00  0.0000E+00  0.0000E+00  0.0000E+00  0.0000E+00  0.0000E+00  0.0000E+00  0.0000E+00  0.0000E+00
    -24.413  0.0000E+00  0.0000E+00  0.0000E+00  0.0000E+00  0.0000E+00  0.0000E+00  0.0000E+00  0.0000E+00  0.0000E+00
    -24.206  0.0000E+00  0.0000E+00  0.0000E+00  0.0000E+00  0.0000E+00  0.0000E+00  0.0000E+00  0.0000E+00  0.0000E+00
    -23.999  0.0000E+00  0.0000E+00  0.0000E+00  0.0000E+00  0.0000E+00  0.0000E+00  0.0000E+00  0.0000E+00  0.0000E+00
    -23.793  0.0000E+00  0.0000E+00  0.0000E+00  0.0000E+00  0.0000E+00  0.0000E+00  0.0000E+00  0.0000E+00  0.0000E+00
    -23.586  0.0000E+00  0.0000E+00  0.0000E+00  0.0000E+00  0.0000E+00  0.0000E+00  0.0000E+00  0.0000E+00  0.0000E+00
    -23.380  0.0000E+00  0.0000E+00  0.0000E+00  0.0000E+00  0.0000E+00  0.0000E+00  0.0000E+00  0.0000E+00  0.0000E+00
    -23.173  0.0000E+00  0.0000E+00  0.0000E+00  0.0000E+00  0.0000E+00  0.0000E+00  0.0000E+00  0.0000E+00  0.0000E+00
    -22.966  0.0000E+00  0.0000E+00  0.0000E+00  0.0000E+00  0.0000E+00  0.0000E+00  0.0000E+00  0.0000E+00  0.0000E+00
    -22.760  0.0000E+00  0.0000E+00  0.0000E+00  0.0000E+00  0.0000E+00  0.0000E+00  0.0000E+00  0.0000E+00  0.0000E+00
    -22.553  0.0000E+00  0.0000E+00  0.0000E+00  0.0000E+00  0.0000E+00  0.0000E+00  0.0000E+00  0.0000E+00  0.0000E+00
    -22.347  0.0000E+00  0.0000E+00  0.0000E+00  0.0000E+00  0.0000E+00  0.0000E+00  0.0000E+00  0.0000E+00  0.0000E+00
    -22.140  0.0000E+00  0.0000E+00  0.0000E+00  0.0000E+00  0.0000E+00  0.0000E+00  0.0000E+00  0.0000E+00  0.0000E+00
    -21.933  0.0000E+00  0.0000E+00  0.0000E+00  0.0000E+00  0.0000E+00  0.0000E+00  0.0000E+00  0.0000E+00  0.0000E+00
    -21.727  0.0000E+00  0.0000E+00  0.0000E+00  0.0000E+00  0.0000E+00  0.0000E+00  0.0000E+00  0.0000E+00  0.0000E+00
    -21.520  0.0000E+00  0.0000E+00  0.0000E+00  0.0000E+00  0.0000E+00  0.0000E+00  0.0000E+00  0.0000E+00  0.0000E+00
    -21.313  0.0000E+00  0.0000E+00  0.0000E+00  0.0000E+00  0.0000E+00  0.0000E+00  0.0000E+00  0.0000E+00  0.0000E+00
    -21.107  0.0000E+00  0.0000E+00  0.0000E+00  0.0000E+00  0.0000E+00  0.0000E+00  0.0000E+00  0.0000E+00  0.0000E+00
    -20.900  0.0000E+00  0.0000E+00  0.0000E+00  0.0000E+00  0.0000E+00  0.0000E+00  0.0000E+00  0.0000E+00  0.0000E+00
    -20.694  0.0000E+00  0.0000E+00  0.0000E+00  0.0000E+00  0.0000E+00  0.0000E+00  0.0000E+00  0.0000E+00  0.0000E+00
    -20.487  0.0000E+00  0.0000E+00  0.0000E+00  0.0000E+00  0.0000E+00  0.0000E+00  0.0000E+00  0.0000E+00  0.0000E+00
    -20.280  0.0000E+00  0.0000E+00  0.0000E+00  0.0000E+00  0.0000E+00  0.0000E+00  0.0000E+00  0.0000E+00  0.0000E+00
    -20.074  0.0000E+00  0.0000E+00  0.0000E+00  0.0000E+00  0.0000E+00  0.0000E+00  0.0000E+00  0.0000E+00  0.0000E+00
    -19.867  0.0000E+00  0.0000E+00  0.0000E+00  0.0000E+00  0.0000E+00  0.0000E+00  0.0000E+00  0.0000E+00  0.0000E+00
    -19.661  0.0000E+00  0.0000E+00  0.0000E+00  0.0000E+00  0.0000E+00  0.0000E+00  0.0000E+00  0.0000E+00  0.0000E+00
    -19.454  0.0000E+00  0.0000E+00  0.0000E+00  0.0000E+00  0.0000E+00  0.0000E+00  0.0000E+00  0.0000E+00  0.0000E+00
    -19.247  0.0000E+00  0.0000E+00  0.0000E+00  0.0000E+00  0.0000E+00  0.0000E+00  0.0000E+00  0.0000E+00  0.0000E+00
    -19.041  0.0000E+00  0.0000E+00  0.0000E+00  0.0000E+00  0.0000E+00  0.0000E+00  0.0000E+00  0.0000E+00  0.0000E+00
    -18.834  0.0000E+00  0.0000E+00  0.0000E+00  0.0000E+00  0.0000E+00  0.0000E+00  0.0000E+00  0.0000E+00  0.0000E+00
    -18.628  0.0000E+00  0.0000E+00  0.0000E+00  0.0000E+00  0.0000E+00  0.0000E+00  0.0000E+00  0.0000E+00  0.0000E+00