       N       E                     dE             d eps       ncg     rms          rms(c)
DAV:   1     0.482308569053E+04    0.48231E+04   -0.15048E+05  3200   0.188E+03
DAV:   2     0.610609139017E+03   -0.42125E+04   -0.40936E+04  3504   0.513E+02
DAV:   3    -0.132738581845E+03   -0.74335E+03   -0.69872E+03  4424   0.207E+02
DAV:   4    -0.232919378483E+03   -0.10018E+03   -0.99772E+02  5368   0.844E+01
DAV:   5    -0.245280533996E+03   -0.12361E+02   -0.12331E+02  6272   0.320E+01    0.264E+01
DAV:   6    -0.233924927385E+03    0.11356E+02   -0.55050E+01  5632   0.271E+01    0.132E+01
DAV:   7    -0.233658378491E+03    0.26655E+00   -0.11280E+01  5984   0.102E+01    0.655E+00
DAV:   8    -0.233706660881E+03   -0.48282E-01   -0.22412E+00  5376   0.529E+00    0.262E+00
DAV:   9    -0.233694375669E+03    0.12285E-01   -0.41499E-01  5280   0.290E+00    0.153E+00
DAV:  10    -0.233683945834E+03    0.10430E-01   -0.11626E-01  5424   0.176E+00    0.709E-01
DAV:  11    -0.233681317562E+03    0.26283E-02   -0.23767E-02  5112   0.699E-01    0.234E-01
DAV:  12    -0.233682145335E+03   -0.82777E-03   -0.86269E-03  6328   0.301E-01    0.164E-01
DAV:  13    -0.233682212664E+03   -0.67329E-04   -0.21263E-03  4784   0.230E-01    0.840E-02
DAV:  14    -0.233682255316E+03   -0.42651E-04   -0.73990E-04  5680   0.840E-02    0.380E-02
DAV:  15    -0.233682268781E+03   -0.13465E-04   -0.11577E-04  5648   0.344E-02    0.163E-02
DAV:  16    -0.233682271117E+03   -0.23367E-05   -0.38987E-05  3824   0.226E-02    0.120E-02
DAV:  17    -0.233682272764E+03   -0.16468E-05   -0.33600E-05  5160   0.129E-02    0.848E-03
DAV:  18    -0.233682273116E+03   -0.35199E-06   -0.33104E-06  2872   0.526E-03
   1 F= -.23368227E+03 E0= -.23368227E+03  d E =-.233682E+03
       N       E                     dE             d eps       ncg     rms          rms(c)
DAV:   1    -0.233568344384E+03    0.11393E+00   -0.15682E+01  3648   0.186E+01    0.186E+00
DAV:   2    -0.233788270181E+03   -0.21993E+00   -0.28821E+00  4160   0.416E+00    0.996E-01
DAV:   3    -0.233782674375E+03    0.55958E-02   -0.11875E-01  5136   0.994E-01    0.673E-01
DAV:   4    -0.233778387299E+03    0.42871E-02   -0.14686E-02  5120   0.371E-01    0.284E-01
DAV:   5    -0.233777700148E+03    0.68715E-03   -0.29225E-03  4968   0.140E-01    0.145E-01
DAV:   6    -0.233777629740E+03    0.70407E-04   -0.65477E-04  5840   0.851E-02    0.101E-01
DAV:   7    -0.233777602943E+03    0.26797E-04   -0.24411E-04  5256   0.441E-02    0.363E-02
DAV:   8    -0.233777593355E+03    0.95889E-05   -0.58329E-05  5800   0.188E-02    0.209E-02
DAV:   9    -0.233777591422E+03    0.19324E-05   -0.19084E-05  4480   0.114E-02    0.798E-03
DAV:  10    -0.233777591340E+03    0.81756E-07   -0.30765E-06  2792   0.615E-03
   2 F= -.23377759E+03 E0= -.23377759E+03  d E =-.953182E-01
       N       E                     dE             d eps       ncg     rms          rms(c)
DAV:   1    -0.233762318614E+03    0.15273E-01   -0.18577E+00  3744   0.642E+00    0.697E-01
DAV:   2    -0.233787018377E+03   -0.24700E-01   -0.32589E-01  4064   0.138E+00    0.332E-01
DAV:   3    -0.233786602563E+03    0.41581E-03   -0.15218E-02  5296   0.357E-01    0.217E-01
DAV:   4    -0.233786158935E+03    0.44363E-03   -0.16020E-03  5328   0.123E-01    0.901E-02
DAV:   5    -0.233786081162E+03    0.77774E-04   -0.32227E-04  4976   0.494E-02    0.453E-02
DAV:   6    -0.233786068913E+03    0.12249E-04   -0.68162E-05  5824   0.266E-02    0.342E-02
DAV:   7    -0.233786060779E+03    0.81336E-05   -0.20386E-05  5048   0.140E-02    0.109E-02
DAV:   8    -0.233786057112E+03    0.36675E-05   -0.37825E-06  3064   0.645E-03    0.652E-03
DAV:   9    -0.233786056603E+03    0.50845E-06   -0.18949E-06  2064   0.561E-03
   3 F= -.23378606E+03 E0= -.23378606E+03  d E =-.103783E+00
       N       E                     dE             d eps       ncg     rms          rms(c)
DAV:   1    -0.233783467714E+03    0.25894E-02   -0.27665E-01  3816   0.248E+00    0.277E-01
DAV:   2    -0.233787158036E+03   -0.36903E-02   -0.48587E-02  3984   0.535E-01    0.125E-01
DAV:   3    -0.233787100141E+03    0.57896E-04   -0.23247E-03  5256   0.140E-01    0.835E-02
DAV:   4    -0.233787031124E+03    0.69017E-04   -0.24158E-04  5344   0.468E-02    0.349E-02
DAV:   5    -0.233787014999E+03    0.16125E-04   -0.52595E-05  4896   0.197E-02    0.172E-02
DAV:   6    -0.233787011371E+03    0.36280E-05   -0.99023E-06  4944   0.101E-02    0.137E-02
DAV:   7    -0.233787008602E+03    0.27693E-05   -0.19896E-06  2392   0.570E-03    0.460E-03
DAV:   8    -0.233787006874E+03    0.17275E-05   -0.11235E-06  2128   0.531E-03    0.279E-03
DAV:   9    -0.233787006872E+03    0.20991E-08   -0.67445E-07  1984   0.412E-03
   4 F= -.23378701E+03 E0= -.23378701E+03  d E =-.104734E+00
       N       E                     dE             d eps       ncg     rms          rms(c)
DAV:   1    -0.233769913248E+03    0.17094E-01   -0.13989E+01  3328   0.114E+01    0.120E+00
DAV:   2    -0.233848749083E+03   -0.78836E-01   -0.91159E-01  4296   0.311E+00    0.611E-01
DAV:   3    -0.233848207327E+03    0.54176E-03   -0.42132E-02  5792   0.621E-01    0.447E-01
DAV:   4    -0.233847199402E+03    0.10079E-02   -0.44656E-03  5728   0.212E-01    0.193E-01
DAV:   5    -0.233846837453E+03    0.36195E-03   -0.18380E-03  4976   0.117E-01    0.535E-02
DAV:   6    -0.233846874447E+03   -0.36994E-04   -0.34917E-04  5040   0.441E-02    0.554E-02
DAV:   7    -0.233846877370E+03   -0.29233E-05   -0.49054E-05  5952   0.163E-02    0.285E-02
DAV:   8    -0.233846879253E+03   -0.18821E-05   -0.52101E-06  3568   0.813E-03    0.145E-02
DAV:   9    -0.233846880334E+03   -0.10819E-05   -0.27622E-06  2360   0.542E-03    0.646E-03
DAV:  10    -0.233846880430E+03   -0.95588E-07   -0.97089E-07  2024   0.501E-03
   5 F= -.23384688E+03 E0= -.23384688E+03  d E =-.598736E-01
       N       E                     dE             d eps       ncg     rms          rms(c)
DAV:   1    -0.233610379743E+03    0.23650E+00   -0.51619E+01  3328   0.220E+01    0.235E+00
DAV:   2    -0.233914512002E+03   -0.30413E+00   -0.35128E+00  4400   0.604E+00    0.120E+00
DAV:   3    -0.233913592624E+03    0.91938E-03   -0.17085E-01  5864   0.118E+00    0.894E-01
DAV:   4    -0.233909667737E+03    0.39249E-02   -0.16001E-02  5632   0.416E-01    0.408E-01
DAV:   5    -0.233907971165E+03    0.16966E-02   -0.77526E-03  4928   0.246E-01    0.108E-01
DAV:   6    -0.233908126730E+03   -0.15556E-03   -0.15504E-03  4992   0.915E-02    0.108E-01
DAV:   7    -0.233908137022E+03   -0.10292E-04   -0.21755E-04  6208   0.349E-02    0.574E-02
DAV:   8    -0.233908139481E+03   -0.24591E-05   -0.29523E-05  5024   0.168E-02    0.297E-02
DAV:   9    -0.233908142123E+03   -0.26422E-05   -0.11028E-05  4632   0.956E-03    0.125E-02
DAV:  10    -0.233908142795E+03   -0.67166E-06   -0.35037E-06  2984   0.579E-03
   6 F= -.23390814E+03 E0= -.23390814E+03  d E =-.121136E+00
       N       E                     dE             d eps       ncg     rms          rms(c)
DAV:   1    -0.233862810798E+03    0.45331E-01   -0.91723E+00  3328   0.932E+00    0.963E-01
DAV:   2    -0.233916426221E+03   -0.53615E-01   -0.61916E-01  4384   0.252E+00    0.496E-01
DAV:   3    -0.233915637057E+03    0.78916E-03   -0.24928E-02  5824   0.480E-01    0.373E-01
DAV:   4    -0.233914934546E+03    0.70251E-03   -0.27273E-03  5640   0.165E-01    0.167E-01
DAV:   5    -0.233914634095E+03    0.30045E-03   -0.14008E-03  4848   0.102E-01    0.439E-02
DAV:   6    -0.233914664530E+03   -0.30435E-04   -0.28171E-04  4792   0.394E-02    0.467E-02
DAV:   7    -0.233914667568E+03   -0.30380E-05   -0.40553E-05  5840   0.141E-02    0.258E-02
DAV:   8    -0.233914668729E+03   -0.11604E-05   -0.44218E-06  3168   0.756E-03    0.137E-02
DAV:   9    -0.233914669666E+03   -0.93745E-06   -0.21100E-06  2096   0.582E-03
   7 F= -.23391467E+03 E0= -.23391467E+03  d E =-.127663E+00
       N       E                     dE             d eps       ncg     rms          rms(c)
DAV:   1    -0.233871473709E+03    0.43195E-01   -0.15358E+01  3520   0.136E+01    0.142E+00
DAV:   2    -0.233964324238E+03   -0.92851E-01   -0.12869E+00  3992   0.312E+00    0.628E-01
DAV:   3    -0.233962467855E+03    0.18564E-02   -0.76101E-02  5840   0.797E-01    0.485E-01
DAV:   4    -0.233960019688E+03    0.24482E-02   -0.92088E-03  5104   0.328E-01    0.194E-01
DAV:   5    -0.233959736454E+03    0.28323E-03   -0.19382E-03  5376   0.111E-01    0.975E-02
DAV:   6    -0.233959718183E+03    0.18271E-04   -0.29440E-04  6024   0.570E-02    0.658E-02
DAV:   7    -0.233959705667E+03    0.12516E-04   -0.66336E-05  5632   0.248E-02    0.181E-02
DAV:   8    -0.233959700785E+03    0.48823E-05   -0.13386E-05  5184   0.106E-02    0.121E-02
DAV:   9    -0.233959700230E+03    0.55498E-06   -0.63572E-06  3440   0.648E-03
   8 F= -.23395970E+03 E0= -.23395970E+03  d E =-.450306E-01
       N       E                     dE             d eps       ncg     rms          rms(c)
DAV:   1    -0.233907114685E+03    0.52586E-01   -0.11921E+01  3504   0.119E+01    0.125E+00
DAV:   2    -0.233979456299E+03   -0.72342E-01   -0.10028E+00  4016   0.277E+00    0.560E-01
DAV:   3    -0.233977567850E+03    0.18884E-02   -0.56086E-02  5728   0.684E-01    0.430E-01
DAV:   4    -0.233975678296E+03    0.18896E-02   -0.71442E-03  5168   0.288E-01    0.170E-01
DAV:   5    -0.233975452025E+03    0.22627E-03   -0.14613E-03  5328   0.969E-02    0.863E-02
DAV:   6    -0.233975432620E+03    0.19406E-04   -0.22348E-04  6072   0.503E-02    0.566E-02
DAV:   7    -0.233975420941E+03    0.11679E-04   -0.52859E-05  5616   0.225E-02    0.152E-02
DAV:   8    -0.233975417266E+03    0.36747E-05   -0.10666E-05  4848   0.949E-03    0.103E-02
DAV:   9    -0.233975416842E+03    0.42461E-06   -0.46320E-06  3048   0.583E-03
   9 F= -.23397542E+03 E0= -.23397542E+03  d E =-.607472E-01
       N       E                     dE             d eps       ncg     rms          rms(c)
DAV:   1    -0.233973913751E+03    0.15035E-02   -0.32721E-01  3520   0.197E+00    0.207E-01
DAV:   2    -0.233975865390E+03   -0.19516E-02   -0.27083E-02  4104   0.461E-01    0.931E-02
DAV:   3    -0.233975797723E+03    0.67667E-04   -0.13798E-03  5648   0.110E-01    0.705E-02
DAV:   4    -0.233975744144E+03    0.53579E-04   -0.19487E-04  5104   0.460E-02    0.274E-02
DAV:   5    -0.233975734919E+03    0.92259E-05   -0.38882E-05  5552   0.160E-02    0.145E-02
DAV:   6    -0.233975731323E+03    0.35961E-05   -0.28023E-06  2760   0.817E-03    0.862E-03
DAV:   7    -0.233975728776E+03    0.25465E-05   -0.42191E-06  2856   0.658E-03    0.348E-03
DAV:   8    -0.233975728428E+03    0.34786E-06   -0.88719E-07  1984   0.450E-03
  10 F= -.23397573E+03 E0= -.23397573E+03  d E =-.610588E-01
       N       E                     dE             d eps       ncg     rms          rms(c)
DAV:   1    -0.233965732918E+03    0.99959E-02   -0.34980E+00  3560   0.731E+00    0.807E-01
DAV:   2    -0.233994281683E+03   -0.28549E-01   -0.39791E-01  4184   0.177E+00    0.394E-01
DAV:   3    -0.233992785631E+03    0.14961E-02   -0.15793E-02  5544   0.382E-01    0.283E-01
DAV:   4    -0.233992035463E+03    0.75017E-03   -0.27411E-03  5088   0.172E-01    0.107E-01
DAV:   5    -0.233991946934E+03    0.88529E-04   -0.46756E-04  5392   0.589E-02    0.564E-02
DAV:   6    -0.233991927499E+03    0.19434E-04   -0.79998E-05  5640   0.338E-02    0.342E-02
DAV:   7    -0.233991916193E+03    0.11306E-04   -0.22451E-05  5712   0.146E-02    0.915E-03
DAV:   8    -0.233991914715E+03    0.14783E-05   -0.35890E-06  2968   0.704E-03    0.657E-03
DAV:   9    -0.233991914288E+03    0.42613E-06   -0.31632E-06  2432   0.627E-03
  11 F= -.23399191E+03 E0= -.23399191E+03  d E =-.161859E-01
       N       E                     dE             d eps       ncg     rms          rms(c)
DAV:   1    -0.233970593790E+03    0.21321E-01   -0.36841E+00  3536   0.750E+00    0.826E-01
DAV:   2    -0.234000572954E+03   -0.29979E-01   -0.41775E-01  4160   0.182E+00    0.408E-01
DAV:   3    -0.233998999186E+03    0.15738E-02   -0.16449E-02  5560   0.394E-01    0.294E-01
DAV:   4    -0.233998192693E+03    0.80649E-03   -0.29061E-03  5112   0.178E-01    0.110E-01
DAV:   5    -0.233998099794E+03    0.92899E-04   -0.51246E-04  5368   0.615E-02    0.581E-02
DAV:   6    -0.233998081221E+03    0.18573E-04   -0.82417E-05  5688   0.342E-02    0.360E-02
DAV:   7    -0.233998069395E+03    0.11826E-04   -0.21519E-05  5592   0.145E-02    0.906E-03
DAV:   8    -0.233998067388E+03    0.20068E-05   -0.37922E-06  3080   0.711E-03    0.653E-03
DAV:   9    -0.233998067013E+03    0.37508E-06   -0.33002E-06  2496   0.618E-03
  12 F= -.23399807E+03 E0= -.23399807E+03  d E =-.223386E-01
       N       E                     dE             d eps       ncg     rms          rms(c)
DAV:   1    -0.233987021029E+03    0.11046E-01   -0.43575E+00  3328   0.682E+00    0.727E-01
DAV:   2    -0.234014282772E+03   -0.27262E-01   -0.32621E-01  4296   0.185E+00    0.369E-01
DAV:   3    -0.234013594752E+03    0.68802E-03   -0.11225E-02  5640   0.344E-01    0.279E-01
DAV:   4    -0.234013139862E+03    0.45489E-03   -0.16187E-03  5696   0.129E-01    0.112E-01
DAV:   5    -0.234013041190E+03    0.98672E-04   -0.53230E-04  5008   0.596E-02    0.365E-02
DAV:   6    -0.234013053511E+03   -0.12321E-04   -0.82476E-05  5520   0.219E-02    0.303E-02
DAV:   7    -0.234013058281E+03   -0.47697E-05   -0.12078E-05  4680   0.941E-03    0.154E-02
DAV:   8    -0.234013060460E+03   -0.21788E-05   -0.20800E-06  2232   0.551E-03    0.720E-03
DAV:   9    -0.234013061134E+03   -0.67422E-06   -0.10560E-06  1984   0.558E-03
  13 F= -.23401306E+03 E0= -.23401306E+03  d E =-.149941E-01
       N       E                     dE             d eps       ncg     rms          rms(c)
DAV:   1    -0.233968756963E+03    0.44303E-01   -0.88626E+00  3328   0.972E+00    0.104E+00
DAV:   2    -0.234024770507E+03   -0.56014E-01   -0.67000E-01  4296   0.262E+00    0.529E-01
DAV:   3    -0.234023354100E+03    0.14164E-02   -0.22995E-02  5680   0.494E-01    0.403E-01
DAV:   4    -0.234022400301E+03    0.95380E-03   -0.33177E-03  5688   0.185E-01    0.162E-01
DAV:   5    -0.234022183045E+03    0.21726E-03   -0.11258E-03  4984   0.871E-02    0.521E-02
DAV:   6    -0.234022204370E+03   -0.21326E-04   -0.17582E-04  5520   0.317E-02    0.446E-02
DAV:   7    -0.234022211982E+03   -0.76112E-05   -0.26419E-05  5200   0.136E-02    0.227E-02
DAV:   8    -0.234022215279E+03   -0.32973E-05   -0.65335E-06  3552   0.807E-03    0.118E-02
DAV:   9    -0.234022215959E+03   -0.68004E-06   -0.14423E-06  1992   0.532E-03
  14 F= -.23402222E+03 E0= -.23402222E+03  d E =-.241489E-01
       N       E                     dE             d eps       ncg     rms          rms(c)
DAV:   1    -0.233999790039E+03    0.22425E-01   -0.53896E+00  3336   0.791E+00    0.759E-01
DAV:   2    -0.234035329398E+03   -0.35539E-01   -0.40786E-01  4264   0.206E+00    0.336E-01
DAV:   3    -0.234034950634E+03    0.37876E-03   -0.16635E-02  5760   0.409E-01    0.257E-01
DAV:   4    -0.234034523650E+03    0.42698E-03   -0.16347E-03  5648   0.121E-01    0.121E-01
DAV:   5    -0.234034290198E+03    0.23345E-03   -0.88714E-04  4544   0.865E-02    0.409E-02
DAV:   6    -0.234034308959E+03   -0.18760E-04   -0.27140E-04  4800   0.386E-02    0.431E-02
DAV:   7    -0.234034304052E+03    0.49064E-05   -0.45691E-05  5408   0.150E-02    0.229E-02
DAV:   8    -0.234034301416E+03    0.26358E-05   -0.58540E-06  3760   0.902E-03    0.107E-02
DAV:   9    -0.234034300813E+03    0.60361E-06   -0.49863E-06  3088   0.608E-03
  15 F= -.23403430E+03 E0= -.23403430E+03  d E =-.120849E-01
       N       E                     dE             d eps       ncg     rms          rms(c)
DAV:   1    -0.234026051224E+03    0.82502E-02   -0.15723E+00  3336   0.428E+00    0.410E-01
DAV:   2    -0.234036530324E+03   -0.10479E-01   -0.12019E-01  4280   0.111E+00    0.178E-01
DAV:   3    -0.234036396474E+03    0.13385E-03   -0.47134E-03  5632   0.220E-01    0.137E-01
DAV:   4    -0.234036271831E+03    0.12464E-03   -0.48669E-04  5680   0.659E-02    0.639E-02
DAV:   5    -0.234036203668E+03    0.68163E-04   -0.24863E-04  4592   0.459E-02    0.218E-02
DAV:   6    -0.234036208604E+03   -0.49363E-05   -0.78420E-05  4856   0.207E-02    0.229E-02
DAV:   7    -0.234036207063E+03    0.15406E-05   -0.12996E-05  4824   0.813E-03    0.120E-02
DAV:   8    -0.234036206098E+03    0.96515E-06   -0.13289E-06  2280   0.505E-03
  16 F= -.23403621E+03 E0= -.23403621E+03  d E =-.139901E-01
       N       E                     dE             d eps       ncg     rms          rms(c)
DAV:   1    -0.234022754752E+03    0.13452E-01   -0.47346E+00  3416   0.649E+00    0.669E-01
DAV:   2    -0.234046811367E+03   -0.24057E-01   -0.29245E-01  4240   0.168E+00    0.344E-01
DAV:   3    -0.234046247157E+03    0.56421E-03   -0.12390E-02  5792   0.338E-01    0.264E-01
DAV:   4    -0.234045815790E+03    0.43137E-03   -0.16368E-03  5632   0.134E-01    0.110E-01
DAV:   5    -0.234045671359E+03    0.14443E-03   -0.56457E-04  4984   0.637E-02    0.378E-02
DAV:   6    -0.234045670911E+03    0.44805E-06   -0.10728E-04  5280   0.261E-02    0.323E-02
DAV:   7    -0.234045668191E+03    0.27204E-05   -0.15739E-05  5160   0.103E-02    0.157E-02
DAV:   8    -0.234045665278E+03    0.29125E-05   -0.16993E-06  2376   0.557E-03    0.747E-03
DAV:   9    -0.234045664259E+03    0.10188E-05   -0.10543E-06  1984   0.543E-03    0.392E-03
DAV:  10    -0.234045664282E+03   -0.22355E-07   -0.90067E-07  1984   0.453E-03
  17 F= -.23404566E+03 E0= -.23404566E+03  d E =-.945818E-02
       N       E                     dE             d eps       ncg     rms          rms(c)
DAV:   1    -0.234038931683E+03    0.67326E-02   -0.18766E+00  3400   0.408E+00    0.424E-01
DAV:   2    -0.234048329829E+03   -0.93981E-02   -0.11432E-01  4256   0.106E+00    0.219E-01
DAV:   3    -0.234048107588E+03    0.22224E-03   -0.48699E-03  5744   0.214E-01    0.166E-01
DAV:   4    -0.234047937881E+03    0.16971E-03   -0.65199E-04  5696   0.841E-02    0.690E-02
DAV:   5    -0.234047880338E+03    0.57542E-04   -0.21558E-04  5024   0.393E-02    0.240E-02
DAV:   6    -0.234047878158E+03    0.21805E-05   -0.40520E-05  5184   0.161E-02    0.202E-02
DAV:   7    -0.234047876112E+03    0.20461E-05   -0.43675E-06  2992   0.642E-03    0.105E-02
DAV:   8    -0.234047874298E+03    0.18136E-05   -0.14066E-06  2128   0.534E-03    0.446E-03
DAV:   9    -0.234047873972E+03    0.32628E-06   -0.85054E-07  1984   0.484E-03
  18 F= -.23404787E+03 E0= -.23404787E+03  d E =-.116679E-01
       N       E                     dE             d eps       ncg     rms          rms(c)
DAV:   1    -0.234034119105E+03    0.13755E-01   -0.29281E+00  3328   0.605E+00    0.530E-01
DAV:   2    -0.234054434375E+03   -0.20315E-01   -0.22920E-01  4176   0.150E+00    0.251E-01
DAV:   3    -0.234054462453E+03   -0.28078E-04   -0.97912E-03  5672   0.312E-01    0.191E-01
DAV:   4    -0.234054296687E+03    0.16577E-03   -0.87680E-04  5872   0.889E-02    0.900E-02
DAV:   5    -0.234054213677E+03    0.83010E-04   -0.39446E-04  5016   0.540E-02    0.307E-02
DAV:   6    -0.234054223000E+03   -0.93232E-05   -0.93320E-05  4528   0.213E-02    0.254E-02
DAV:   7    -0.234054224388E+03   -0.13880E-05   -0.15405E-05  5048   0.920E-03    0.135E-02
DAV:   8    -0.234054225668E+03   -0.12797E-05   -0.14275E-06  2288   0.508E-03    0.694E-03
DAV:   9    -0.234054226155E+03   -0.48696E-06   -0.96467E-07  2024   0.463E-03
  19 F= -.23405423E+03 E0= -.23405423E+03  d E =-.635218E-02
       N       E                     dE             d eps       ncg     rms          rms(c)
DAV:   1    -0.234051345768E+03    0.28799E-02   -0.51907E-01  3336   0.254E+00    0.223E-01
DAV:   2    -0.234054982438E+03   -0.36367E-02   -0.41024E-02  4192   0.633E-01    0.107E-01
DAV:   3    -0.234054977802E+03    0.46363E-05   -0.16599E-03  5624   0.129E-01    0.818E-02
DAV:   4    -0.234054946601E+03    0.31201E-04   -0.15564E-04  5832   0.377E-02    0.389E-02
DAV:   5    -0.234054932483E+03    0.14118E-04   -0.73127E-05  4984   0.231E-02    0.129E-02
DAV:   6    -0.234054934759E+03   -0.22755E-05   -0.17051E-05  4088   0.923E-03    0.110E-02
DAV:   7    -0.234054935246E+03   -0.48661E-06   -0.14262E-06  1984   0.460E-03
  20 F= -.23405494E+03 E0= -.23405494E+03  d E =-.706127E-02
       N       E                     dE             d eps       ncg     rms          rms(c)
DAV:   1    -0.234043654097E+03    0.11281E-01   -0.31485E+00  3328   0.528E+00    0.517E-01
DAV:   2    -0.234060608555E+03   -0.16954E-01   -0.19530E-01  4312   0.137E+00    0.246E-01
DAV:   3    -0.234060434914E+03    0.17364E-03   -0.76270E-03  5744   0.266E-01    0.194E-01
DAV:   4    -0.234060285278E+03    0.14964E-03   -0.83974E-04  5960   0.936E-02    0.894E-02
DAV:   5    -0.234060190042E+03    0.95236E-04   -0.36673E-04  4968   0.496E-02    0.312E-02
DAV:   6    -0.234060192660E+03   -0.26184E-05   -0.81363E-05  4616   0.200E-02    0.191E-02
DAV:   7    -0.234060191790E+03    0.87058E-06   -0.11387E-05  5064   0.790E-03    0.107E-02
DAV:   8    -0.234060190545E+03    0.12451E-05   -0.85935E-07  2016   0.400E-03    0.570E-03
DAV:   9    -0.234060189851E+03    0.69416E-06   -0.66319E-07  1984   0.405E-03
  21 F= -.23406019E+03 E0= -.23406019E+03  d E =-.525461E-02
       N       E                     dE             d eps       ncg     rms          rms(c)
DAV:   1    -0.234057037293E+03    0.31533E-02   -0.77271E-01  3328   0.262E+00    0.255E-01
DAV:   2    -0.234061170694E+03   -0.41334E-02   -0.47574E-02  4320   0.678E-01    0.121E-01
DAV:   3    -0.234061123943E+03    0.46750E-04   -0.18214E-03  5632   0.131E-01    0.948E-02
DAV:   4    -0.234061087206E+03    0.36737E-04   -0.20970E-04  5960   0.459E-02    0.428E-02
DAV:   5    -0.234061063771E+03    0.23435E-04   -0.83522E-05  5032   0.238E-02    0.153E-02
DAV:   6    -0.234061063141E+03    0.62978E-06   -0.18864E-05  4384   0.969E-03    0.930E-03
DAV:   7    -0.234061062233E+03    0.90798E-06   -0.12865E-06  1984   0.407E-03
  22 F= -.23406106E+03 E0= -.23406106E+03  d E =-.612699E-02
       N       E                     dE             d eps       ncg     rms          rms(c)
DAV:   1    -0.234045063831E+03    0.15999E-01   -0.29010E+00  3328   0.595E+00    0.502E-01
DAV:   2    -0.234065176603E+03   -0.20113E-01   -0.22906E-01  4288   0.145E+00    0.230E-01
DAV:   3    -0.234065097067E+03    0.79536E-04   -0.83905E-03  5880   0.281E-01    0.179E-01
DAV:   4    -0.234064923374E+03    0.17369E-03   -0.77622E-04  5840   0.851E-02    0.872E-02
DAV:   5    -0.234064819884E+03    0.10349E-03   -0.43368E-04  4800   0.573E-02    0.296E-02
DAV:   6    -0.234064827462E+03   -0.75774E-05   -0.10593E-04  4680   0.239E-02    0.267E-02
DAV:   7    -0.234064825469E+03    0.19930E-05   -0.18259E-05  4928   0.977E-03    0.136E-02
DAV:   8    -0.234064824474E+03    0.99486E-06   -0.20938E-06  2408   0.513E-03
  23 F= -.23406482E+03 E0= -.23406482E+03  d E =-.376224E-02
       N       E                     dE             d eps       ncg     rms          rms(c)
DAV:   1    -0.234064823964E+03    0.15048E-05   -0.69912E-06  3248   0.972E-03    0.387E-03
DAV:   2    -0.234064824059E+03   -0.95522E-07   -0.10753E-06  2120   0.372E-03
  24 F= -.23406482E+03 E0= -.23406482E+03  d E =-.376183E-02
       N       E                     dE             d eps       ncg     rms          rms(c)
DAV:   1    -0.234057753716E+03    0.70702E-02   -0.19309E+00  3328   0.416E+00    0.415E-01
DAV:   2    -0.234068156536E+03   -0.10403E-01   -0.11853E-01  4360   0.111E+00    0.195E-01
DAV:   3    -0.234068030170E+03    0.12637E-03   -0.45453E-03  5792   0.210E-01    0.147E-01
DAV:   4    -0.234067915602E+03    0.11457E-03   -0.48389E-04  5800   0.669E-02    0.667E-02
DAV:   5    -0.234067863539E+03    0.52062E-04   -0.25002E-04  4752   0.429E-02    0.187E-02
DAV:   6    -0.234067869416E+03   -0.58764E-05   -0.57004E-05  4488   0.178E-02    0.187E-02
DAV:   7    -0.234067869491E+03   -0.75077E-07   -0.72555E-06  3656   0.649E-03
  25 F= -.23406787E+03 E0= -.23406787E+03  d E =-.304543E-02
       N       E                     dE             d eps       ncg     rms          rms(c)
DAV:   1    -0.234066981918E+03    0.88750E-03   -0.20913E-01  3328   0.137E+00    0.141E-01
DAV:   2    -0.234068129771E+03   -0.11479E-02   -0.13116E-02  4344   0.369E-01    0.634E-02
DAV:   3    -0.234068114155E+03    0.15615E-04   -0.49201E-04  5760   0.696E-02    0.478E-02
DAV:   4    -0.234068102074E+03    0.12081E-04   -0.53519E-05  5656   0.222E-02    0.215E-02
DAV:   5    -0.234068096874E+03    0.51995E-05   -0.27198E-05  4616   0.143E-02    0.604E-03
DAV:   6    -0.234068097604E+03   -0.72950E-06   -0.59290E-06  3296   0.622E-03
  26 F= -.23406810E+03 E0= -.23406810E+03  d E =-.327354E-02
       N       E                     dE             d eps       ncg     rms          rms(c)
DAV:   1    -0.234062382701E+03    0.57142E-02   -0.18376E+00  3392   0.378E+00    0.436E-01
DAV:   2    -0.234071634114E+03   -0.92514E-02   -0.10557E-01  4328   0.104E+00    0.200E-01
DAV:   3    -0.234071506760E+03    0.12735E-03   -0.41980E-03  5800   0.201E-01    0.152E-01
DAV:   4    -0.234071391728E+03    0.11503E-03   -0.44841E-04  5600   0.624E-02    0.730E-02
DAV:   5    -0.234071334897E+03    0.56832E-04   -0.23243E-04  4864   0.404E-02    0.197E-02
DAV:   6    -0.234071338717E+03   -0.38206E-05   -0.57391E-05  4520   0.171E-02    0.172E-02
DAV:   7    -0.234071337806E+03    0.91098E-06   -0.61363E-06  3696   0.618E-03
  27 F= -.23407134E+03 E0= -.23407134E+03  d E =-.324020E-02
       N       E                     dE             d eps       ncg     rms          rms(c)
DAV:   1    -0.234068568302E+03    0.27704E-02   -0.65757E-01  3328   0.226E+00    0.265E-01
DAV:   2    -0.234072032884E+03   -0.34646E-02   -0.39239E-02  4312   0.636E-01    0.118E-01
DAV:   3    -0.234071996094E+03    0.36790E-04   -0.16125E-03  5792   0.124E-01    0.889E-02
DAV:   4    -0.234071957654E+03    0.38439E-04   -0.16647E-04  5648   0.381E-02    0.413E-02
DAV:   5    -0.234071938830E+03    0.18824E-04   -0.76802E-05  4960   0.238E-02    0.116E-02
DAV:   6    -0.234071939608E+03   -0.77739E-06   -0.18999E-05  4232   0.995E-03    0.102E-02
DAV:   7    -0.234071938985E+03    0.62314E-06   -0.13257E-06  2008   0.421E-03
  28 F= -.23407194E+03 E0= -.23407194E+03  d E =-.384138E-02
       N       E                     dE             d eps       ncg     rms          rms(c)
DAV:   1    -0.234064273006E+03    0.76666E-02   -0.22189E+00  3392   0.418E+00    0.432E-01
DAV:   2    -0.234074706083E+03   -0.10433E-01   -0.11998E-01  4288   0.110E+00    0.202E-01
DAV:   3    -0.234074610420E+03    0.95663E-04   -0.51849E-03  5816   0.216E-01    0.155E-01
DAV:   4    -0.234074484272E+03    0.12615E-03   -0.52614E-04  5592   0.690E-02    0.731E-02
DAV:   5    -0.234074422849E+03    0.61422E-04   -0.26907E-04  4912   0.428E-02    0.210E-02
DAV:   6    -0.234074426885E+03   -0.40359E-05   -0.61435E-05  4672   0.177E-02    0.186E-02
DAV:   7    -0.234074425949E+03    0.93584E-06   -0.84801E-06  4264   0.692E-03
  29 F= -.23407443E+03 E0= -.23407443E+03  d E =-.248696E-02
       N       E                     dE             d eps       ncg     rms          rms(c)
DAV:   1    -0.234074115871E+03    0.31101E-03   -0.75118E-02  3328   0.770E-01    0.838E-02
DAV:   2    -0.234074497846E+03   -0.38197E-03   -0.43551E-03  4288   0.208E-01    0.357E-02
DAV:   3    -0.234074495258E+03    0.25875E-05   -0.18804E-04  5776   0.410E-02    0.267E-02
DAV:   4    -0.234074491345E+03    0.39135E-05   -0.18444E-05  5248   0.128E-02    0.119E-02
DAV:   5    -0.234074489086E+03    0.22592E-05   -0.73778E-06  3760   0.779E-03    0.362E-03
DAV:   6    -0.234074488928E+03    0.15755E-06   -0.17502E-06  2144   0.442E-03
  30 F= -.23407449E+03 E0= -.23407449E+03  d E =-.254994E-02
       N       E                     dE             d eps       ncg     rms          rms(c)
DAV:   1    -0.234070466443E+03    0.40226E-02   -0.12022E+00  3328   0.336E+00    0.312E-01
DAV:   2    -0.234076737652E+03   -0.62712E-02   -0.71981E-02  4352   0.848E-01    0.140E-01
DAV:   3    -0.234076670168E+03    0.67485E-04   -0.28572E-03  5800   0.162E-01    0.107E-01
DAV:   4    -0.234076598866E+03    0.71302E-04   -0.30122E-04  5664   0.519E-02    0.468E-02
DAV:   5    -0.234076567716E+03    0.31150E-04   -0.13730E-04  4760   0.335E-02    0.131E-02
DAV:   6    -0.234076570723E+03   -0.30064E-05   -0.36633E-05  4512   0.146E-02    0.164E-02
DAV:   7    -0.234076570203E+03    0.51992E-06   -0.45396E-06  3200   0.532E-03
  31 F= -.23407657E+03 E0= -.23407657E+03  d E =-.208127E-02
       N       E                     dE             d eps       ncg     rms          rms(c)
DAV:   1    -0.234075798702E+03    0.77202E-03   -0.19236E-01  3328   0.134E+00    0.127E-01
DAV:   2    -0.234076800229E+03   -0.10015E-02   -0.11500E-02  4376   0.339E-01    0.553E-02
DAV:   3    -0.234076788704E+03    0.11525E-04   -0.45484E-04  5744   0.652E-02    0.420E-02
DAV:   4    -0.234076777299E+03    0.11406E-04   -0.48961E-05  5568   0.212E-02    0.181E-02
DAV:   5    -0.234076772499E+03    0.47996E-05   -0.21170E-05  4520   0.134E-02    0.517E-03
DAV:   6    -0.234076772903E+03   -0.40404E-06   -0.54825E-06  3240   0.605E-03
  32 F= -.23407677E+03 E0= -.23407677E+03  d E =-.228398E-02
       N       E                     dE             d eps       ncg     rms          rms(c)
DAV:   1    -0.234072199384E+03    0.45731E-02   -0.12904E+00  3328   0.327E+00    0.313E-01
DAV:   2    -0.234078742348E+03   -0.65430E-02   -0.74358E-02  4272   0.815E-01    0.138E-01
DAV:   3    -0.234078746196E+03   -0.38486E-05   -0.34437E-03  5704   0.163E-01    0.103E-01
DAV:   4    -0.234078694706E+03    0.51491E-04   -0.31293E-04  5904   0.519E-02    0.467E-02
DAV:   5    -0.234078665811E+03    0.28895E-04   -0.13340E-04  4720   0.318E-02    0.142E-02
DAV:   6    -0.234078668787E+03   -0.29760E-05   -0.34693E-05  4408   0.136E-02    0.147E-02
DAV:   7    -0.234078668262E+03    0.52529E-06   -0.44404E-06  3096   0.541E-03
  33 F= -.23407867E+03 E0= -.23407867E+03  d E =-.189536E-02
       N       E                     dE             d eps       ncg     rms          rms(c)
DAV:   1    -0.234077147261E+03    0.15215E-02   -0.34746E-01  3328   0.170E+00    0.164E-01
DAV:   2    -0.234078934226E+03   -0.17870E-02   -0.20304E-02  4344   0.424E-01    0.714E-02
DAV:   3    -0.234078928196E+03    0.60297E-05   -0.87770E-04  5728   0.827E-02    0.537E-02
DAV:   4    -0.234078913874E+03    0.14323E-04   -0.81295E-05  5752   0.268E-02    0.243E-02
DAV:   5    -0.234078905778E+03    0.80955E-05   -0.36390E-05  4528   0.168E-02    0.740E-03
DAV:   6    -0.234078906540E+03   -0.76167E-06   -0.94907E-06  3480   0.752E-03
  34 F= -.23407891E+03 E0= -.23407891E+03  d E =-.213364E-02
       N       E                     dE             d eps       ncg     rms          rms(c)
DAV:   1    -0.234076511424E+03    0.23944E-02   -0.83660E-01  3328   0.242E+00    0.259E-01
DAV:   2    -0.234080266772E+03   -0.37553E-02   -0.42767E-02  4320   0.627E-01    0.115E-01
DAV:   3    -0.234080243823E+03    0.22949E-04   -0.18937E-03  5600   0.124E-01    0.862E-02
DAV:   4    -0.234080205411E+03    0.38413E-04   -0.20188E-04  5752   0.413E-02    0.378E-02
DAV:   5    -0.234080188308E+03    0.17103E-04   -0.79572E-05  4912   0.236E-02    0.958E-03
DAV:   6    -0.234080189106E+03   -0.79879E-06   -0.15894E-05  4232   0.929E-03    0.111E-02
DAV:   7    -0.234080188662E+03    0.44443E-06   -0.11677E-06  1984   0.378E-03
  35 F= -.23408019E+03 E0= -.23408019E+03  d E =-.128212E-02
       N       E                     dE             d eps       ncg     rms          rms(c)
DAV:   1    -0.234079969924E+03    0.21918E-03   -0.69325E-02  3328   0.696E-01    0.749E-02
DAV:   2    -0.234080283403E+03   -0.31348E-03   -0.35551E-03  4368   0.181E-01    0.328E-02
DAV:   3    -0.234080280353E+03    0.30503E-05   -0.14671E-04  5584   0.349E-02    0.245E-02
DAV:   4    -0.234080276897E+03    0.34558E-05   -0.16533E-05  5392   0.121E-02    0.105E-02
DAV:   5    -0.234080275147E+03    0.17497E-05   -0.57032E-06  3200   0.695E-03    0.258E-03
DAV:   6    -0.234080275095E+03    0.51787E-07   -0.14834E-06  2104   0.424E-03
  36 F= -.23408028E+03 E0= -.23408028E+03  d E =-.136856E-02
       N       E                     dE             d eps       ncg     rms          rms(c)
DAV:   1    -0.234080268900E+03    0.62474E-05   -0.15491E-01  3328   0.133E+00    0.103E-01
DAV:   2    -0.234081192841E+03   -0.92394E-03   -0.10329E-02  4304   0.294E-01    0.448E-02
DAV:   3    -0.234081187969E+03    0.48715E-05   -0.37468E-04  5704   0.587E-02    0.335E-02
DAV:   4    -0.234081180214E+03    0.77551E-05   -0.37142E-05  5608   0.175E-02    0.157E-02
DAV:   5    -0.234081176433E+03    0.37813E-05   -0.14736E-05  4424   0.110E-02    0.506E-03
DAV:   6    -0.234081176384E+03    0.48287E-07   -0.32568E-06  2488   0.514E-03
  37 F= -.23408118E+03 E0= -.23408118E+03  d E =-.901289E-03
       N       E                     dE             d eps       ncg     rms          rms(c)
DAV:   1    -0.234080303273E+03    0.87316E-03   -0.21010E-01  3328   0.155E+00    0.121E-01
DAV:   2    -0.234081552073E+03   -0.12488E-02   -0.13984E-02  4304   0.344E-01    0.519E-02
DAV:   3    -0.234081546496E+03    0.55778E-05   -0.51545E-04  5704   0.688E-02    0.386E-02
DAV:   4    -0.234081536471E+03    0.10024E-04   -0.50886E-05  5728   0.207E-02    0.181E-02
DAV:   5    -0.234081531585E+03    0.48862E-05   -0.19878E-05  4536   0.129E-02    0.587E-03
DAV:   6    -0.234081531642E+03   -0.57316E-07   -0.51620E-06  3128   0.595E-03
  38 F= -.23408153E+03 E0= -.23408153E+03  d E =-.125655E-02
       N       E                     dE             d eps       ncg     rms          rms(c)
DAV:   1    -0.234080327184E+03    0.12044E-02   -0.15984E-01  3336   0.145E+00    0.131E-01
DAV:   2    -0.234081862957E+03   -0.15358E-02   -0.17402E-02  4352   0.352E-01    0.566E-02
DAV:   3    -0.234081860697E+03    0.22607E-05   -0.59465E-04  5600   0.670E-02    0.435E-02
DAV:   4    -0.234081847392E+03    0.13305E-04   -0.50514E-05  5512   0.194E-02    0.217E-02
DAV:   5    -0.234081841183E+03    0.62088E-05   -0.24141E-05  4360   0.146E-02    0.733E-03
DAV:   6    -0.234081841909E+03   -0.72619E-06   -0.91927E-06  3768   0.726E-03
  39 F= -.23408184E+03 E0= -.23408184E+03  d E =-.310267E-03
       N       E                     dE             d eps       ncg     rms          rms(c)
DAV:   1    -0.234081824344E+03    0.16839E-04   -0.25758E-03  3368   0.185E-01    0.144E-02
DAV:   2    -0.234081849268E+03   -0.24924E-04   -0.27369E-04  4384   0.444E-02    0.823E-03
DAV:   3    -0.234081849111E+03    0.15719E-06   -0.76517E-06  3464   0.814E-03
  40 F= -.23408185E+03 E0= -.23408185E+03  d E =-.317469E-03
       N       E                     dE             d eps       ncg     rms          rms(c)
DAV:   1    -0.234081721908E+03    0.12736E-03   -0.30159E-02  3328   0.620E-01    0.680E-02
DAV:   2    -0.234082004936E+03   -0.28303E-03   -0.31834E-03  4248   0.180E-01    0.293E-02
DAV:   3    -0.234082002757E+03    0.21792E-05   -0.10504E-04  5760   0.340E-02    0.223E-02
DAV:   4    -0.234081999991E+03    0.27652E-05   -0.97412E-06  4592   0.855E-03    0.116E-02
DAV:   5    -0.234081998359E+03    0.16322E-05   -0.56491E-06  2944   0.660E-03    0.465E-03
DAV:   6    -0.234081998446E+03   -0.86675E-07   -0.16125E-06  2176   0.428E-03
  41 F= -.23408200E+03 E0= -.23408200E+03  d E =-.149335E-03
       N       E                     dE             d eps       ncg     rms          rms(c)
DAV:   1    -0.234081378058E+03    0.62030E-03   -0.75734E-02  3336   0.984E-01    0.106E-01
DAV:   2    -0.234082086205E+03   -0.70815E-03   -0.79884E-03  4248   0.284E-01    0.459E-02
DAV:   3    -0.234082081527E+03    0.46784E-05   -0.27100E-04  5768   0.540E-02    0.352E-02
DAV:   4    -0.234082075014E+03    0.65128E-05   -0.25603E-05  5416   0.139E-02    0.181E-02
DAV:   5    -0.234082071074E+03    0.39404E-05   -0.15354E-05  3816   0.105E-02    0.724E-03
DAV:   6    -0.234082071436E+03   -0.36216E-06   -0.47608E-06  2992   0.559E-03
  42 F= -.23408207E+03 E0= -.23408207E+03  d E =-.222325E-03
       N       E                     dE             d eps       ncg     rms          rms(c)
DAV:   1    -0.234082060730E+03    0.10343E-04   -0.14446E-02  3328   0.327E-01    0.475E-02
DAV:   2    -0.234082156433E+03   -0.95702E-04   -0.10812E-03  4360   0.107E-01    0.207E-02
DAV:   3    -0.234082155746E+03    0.68684E-06   -0.39709E-05  5736   0.197E-02    0.148E-02
DAV:   4    -0.234082154706E+03    0.10402E-05   -0.26239E-06  2776   0.568E-03    0.866E-03
DAV:   5    -0.234082154457E+03    0.24903E-06   -0.72257E-06  3536   0.598E-03
  43 F= -.23408215E+03 E0= -.23408215E+03  d E =-.830208E-04
       N       E                     dE             d eps       ncg     rms          rms(c)
DAV:   1    -0.234081533928E+03    0.62078E-03   -0.12066E-01  3328   0.945E-01    0.135E-01
DAV:   2    -0.234082321448E+03   -0.78752E-03   -0.88557E-03  4352   0.303E-01    0.611E-02
DAV:   3    -0.234082315573E+03    0.58749E-05   -0.32952E-04  5832   0.558E-02    0.435E-02
DAV:   4    -0.234082307458E+03    0.81150E-05   -0.32682E-05  5312   0.160E-02    0.225E-02
DAV:   5    -0.234082303781E+03    0.36770E-05   -0.17938E-05  3944   0.106E-02    0.739E-03
DAV:   6    -0.234082304181E+03   -0.40086E-06   -0.44373E-06  2888   0.564E-03
  44 F= -.23408230E+03 E0= -.23408230E+03  d E =-.232746E-03
       N       E                     dE             d eps       ncg     rms          rms(c)
DAV:   1    -0.234079094871E+03    0.32089E-02   -0.48179E-01  3328   0.189E+00    0.268E-01
DAV:   2    -0.234082242407E+03   -0.31475E-02   -0.35285E-02  4336   0.608E-01    0.123E-01
DAV:   3    -0.234082218290E+03    0.24116E-04   -0.13152E-03  5848   0.112E-01    0.875E-02
DAV:   4    -0.234082184220E+03    0.34070E-04   -0.13296E-04  5584   0.321E-02    0.455E-02
DAV:   5    -0.234082169643E+03    0.14578E-04   -0.71379E-05  4464   0.210E-02    0.150E-02
DAV:   6    -0.234082171352E+03   -0.17093E-05   -0.18310E-05  3960   0.102E-02    0.719E-03
DAV:   7    -0.234082171179E+03    0.17327E-06   -0.11265E-06  2056   0.381E-03
  45 F= -.23408217E+03 E0= -.23408217E+03  d E =-.997429E-04
       N       E                     dE             d eps       ncg     rms          rms(c)
DAV:   1    -0.234080690873E+03    0.14805E-02   -0.25721E-01  3328   0.138E+00    0.193E-01
DAV:   2    -0.234082367373E+03   -0.16765E-02   -0.18763E-02  4368   0.444E-01    0.908E-02
DAV:   3    -0.234082350999E+03    0.16374E-04   -0.66084E-04  5800   0.808E-02    0.644E-02
DAV:   4    -0.234082331923E+03    0.19075E-04   -0.68924E-05  5440   0.230E-02    0.339E-02
DAV:   5    -0.234082324101E+03    0.78228E-05   -0.39060E-05  4296   0.152E-02    0.112E-02
DAV:   6    -0.234082325046E+03   -0.94529E-06   -0.92507E-06  3512   0.742E-03
  46 F= -.23408233E+03 E0= -.23408233E+03  d E =-.253610E-03
       N       E                     dE             d eps       ncg     rms          rms(c)
DAV:   1    -0.234082219271E+03    0.10483E-03   -0.38582E-02  3328   0.593E-01    0.746E-02
DAV:   2    -0.234082503149E+03   -0.28388E-03   -0.32661E-03  4264   0.181E-01    0.363E-02
DAV:   3    -0.234082497624E+03    0.55249E-05   -0.10574E-04  5712   0.332E-02    0.272E-02
DAV:   4    -0.234082492055E+03    0.55691E-05   -0.13932E-05  4728   0.101E-02    0.131E-02
DAV:   5    -0.234082489974E+03    0.20811E-05   -0.68326E-06  3624   0.703E-03    0.363E-03
DAV:   6    -0.234082489828E+03    0.14559E-06   -0.12994E-06  1968   0.408E-03
  47 F= -.23408249E+03 E0= -.23408249E+03  d E =-.164782E-03
       N       E                     dE             d eps       ncg     rms          rms(c)
DAV:   1    -0.234080579947E+03    0.19100E-02   -0.29531E-01  3328   0.164E+00    0.211E-01
DAV:   2    -0.234082748276E+03   -0.21683E-02   -0.25175E-02  4256   0.502E-01    0.982E-02
DAV:   3    -0.234082709809E+03    0.38467E-04   -0.86044E-04  5728   0.935E-02    0.732E-02
DAV:   4    -0.234082671165E+03    0.38644E-04   -0.10811E-04  5328   0.282E-02    0.349E-02
DAV:   5    -0.234082658404E+03    0.12761E-04   -0.53646E-05  4592   0.190E-02    0.989E-03
DAV:   6    -0.234082658553E+03   -0.14946E-06   -0.10950E-05  3704   0.811E-03    0.892E-03
DAV:   7    -0.234082658089E+03    0.46447E-06   -0.11181E-06  2000   0.372E-03
  48 F= -.23408266E+03 E0= -.23408266E+03  d E =-.333043E-03
       N       E                     dE             d eps       ncg     rms          rms(c)
DAV:   1    -0.234082380826E+03    0.27773E-03   -0.66735E-02  3328   0.741E-01    0.913E-02
DAV:   2    -0.234082810565E+03   -0.42974E-03   -0.49507E-03  4256   0.228E-01    0.421E-02
DAV:   3    -0.234082806818E+03    0.37462E-05   -0.18835E-04  5664   0.430E-02    0.309E-02
DAV:   4    -0.234082800312E+03    0.65064E-05   -0.22095E-05  5000   0.126E-02    0.145E-02
DAV:   5    -0.234082799279E+03    0.10331E-05   -0.90233E-06  3920   0.785E-03    0.395E-03
DAV:   6    -0.234082799598E+03   -0.31909E-06   -0.12717E-06  2024   0.398E-03
  49 F= -.23408280E+03 E0= -.23408280E+03  d E =-.141509E-03
       N       E                     dE             d eps       ncg     rms          rms(c)
DAV:   1    -0.234081391169E+03    0.14081E-02   -0.23972E-01  3328   0.140E+00    0.172E-01
DAV:   2    -0.234082928987E+03   -0.15378E-02   -0.17720E-02  4248   0.430E-01    0.800E-02
DAV:   3    -0.234082916162E+03    0.12825E-04   -0.67051E-04  5656   0.810E-02    0.588E-02
DAV:   4    -0.234082892611E+03    0.23551E-04   -0.79218E-05  5208   0.239E-02    0.277E-02
DAV:   5    -0.234082888372E+03    0.42395E-05   -0.33831E-05  4592   0.147E-02    0.756E-03
DAV:   6    -0.234082889155E+03   -0.78322E-06   -0.48882E-06  3080   0.621E-03
  50 F= -.23408289E+03 E0= -.23408289E+03  d E =-.231066E-03
       N       E                     dE             d eps       ncg     rms          rms(c)
DAV:   1    -0.234082222338E+03    0.66603E-03   -0.12303E-01  3392   0.104E+00    0.124E-01
DAV:   2    -0.234083098312E+03   -0.87597E-03   -0.99387E-03  4248   0.308E-01    0.549E-02
DAV:   3    -0.234083093703E+03    0.46093E-05   -0.35911E-04  5672   0.581E-02    0.409E-02
DAV:   4    -0.234083084008E+03    0.96954E-05   -0.36828E-05  5256   0.158E-02    0.205E-02
DAV:   5    -0.234083081549E+03    0.24581E-05   -0.17878E-05  4368   0.108E-02    0.629E-03
DAV:   6    -0.234083082106E+03   -0.55631E-06   -0.34562E-06  2680   0.510E-03
  51 F= -.23408308E+03 E0= -.23408308E+03  d E =-.192951E-03
       N       E                     dE             d eps       ncg     rms          rms(c)
DAV:   1    -0.234082063001E+03    0.10185E-02   -0.15532E-01  3392   0.117E+00    0.139E-01
DAV:   2    -0.234083172619E+03   -0.11096E-02   -0.12584E-02  4192   0.347E-01    0.623E-02
DAV:   3    -0.234083166544E+03    0.60752E-05   -0.45185E-04  5672   0.659E-02    0.464E-02
DAV:   4    -0.234083153927E+03    0.12617E-04   -0.47003E-05  5328   0.178E-02    0.233E-02
DAV:   5    -0.234083150609E+03    0.33179E-05   -0.23268E-05  4456   0.122E-02    0.713E-03
DAV:   6    -0.234083151291E+03   -0.68168E-06   -0.47466E-06  2984   0.580E-03
  52 F= -.23408315E+03 E0= -.23408315E+03  d E =-.262136E-03
       N       E                     dE             d eps       ncg     rms          rms(c)
DAV:   1    -0.234082333232E+03    0.81738E-03   -0.16564E-01  3328   0.118E+00    0.139E-01
DAV:   2    -0.234083431263E+03   -0.10980E-02   -0.12675E-02  4216   0.340E-01    0.651E-02
DAV:   3    -0.234083418946E+03    0.12317E-04   -0.42080E-04  5600   0.641E-02    0.491E-02
DAV:   4    -0.234083403006E+03    0.15941E-04   -0.53676E-05  5472   0.202E-02    0.218E-02
DAV:   5    -0.234083398594E+03    0.44117E-05   -0.19743E-05  4688   0.111E-02    0.630E-03
DAV:   6    -0.234083397917E+03    0.67736E-06   -0.21116E-06  2328   0.448E-03
  53 F= -.23408340E+03 E0= -.23408340E+03  d E =-.246626E-03
       N       E                     dE             d eps       ncg     rms          rms(c)
DAV:   1    -0.234082670628E+03    0.72797E-03   -0.12995E-01  3328   0.104E+00    0.123E-01
DAV:   2    -0.234083531722E+03   -0.86109E-03   -0.99245E-03  4216   0.300E-01    0.575E-02
DAV:   3    -0.234083521842E+03    0.98803E-05   -0.32922E-04  5576   0.565E-02    0.432E-02
DAV:   4    -0.234083509044E+03    0.12798E-04   -0.42414E-05  5432   0.181E-02    0.191E-02
DAV:   5    -0.234083505388E+03    0.36556E-05   -0.15547E-05  4616   0.990E-03    0.561E-03
DAV:   6    -0.234083504742E+03    0.64648E-06   -0.15881E-06  2120   0.412E-03
  54 F= -.23408350E+03 E0= -.23408350E+03  d E =-.353451E-03
       N       E                     dE             d eps       ncg     rms          rms(c)
DAV:   1    -0.234082697866E+03    0.80752E-03   -0.16575E-01  3392   0.124E+00    0.121E-01
DAV:   2    -0.234083823567E+03   -0.11257E-02   -0.12607E-02  4272   0.321E-01    0.502E-02
DAV:   3    -0.234083822406E+03    0.11610E-05   -0.39310E-04  5584   0.586E-02    0.395E-02
DAV:   4    -0.234083814043E+03    0.83636E-05   -0.37750E-05  5424   0.164E-02    0.188E-02
DAV:   5    -0.234083811512E+03    0.25308E-05   -0.18400E-05  4328   0.110E-02    0.540E-03
DAV:   6    -0.234083811808E+03   -0.29638E-06   -0.32549E-06  2616   0.485E-03
  55 F= -.23408381E+03 E0= -.23408381E+03  d E =-.307066E-03
       N       E                     dE             d eps       ncg     rms          rms(c)
DAV:   1    -0.234074809917E+03    0.90016E-02   -0.14972E+00  3456   0.370E+00    0.353E-01
DAV:   2    -0.234084125444E+03   -0.93155E-02   -0.10537E-01  4280   0.944E-01    0.153E-01
DAV:   3    -0.234084122716E+03    0.27279E-05   -0.35266E-03  5688   0.174E-01    0.121E-01
DAV:   4    -0.234084041124E+03    0.81592E-04   -0.31853E-04  5464   0.478E-02    0.597E-02
DAV:   5    -0.234084013723E+03    0.27401E-04   -0.18079E-04  4768   0.344E-02    0.162E-02
DAV:   6    -0.234084017308E+03   -0.35852E-05   -0.40538E-05  4352   0.151E-02    0.173E-02
DAV:   7    -0.234084016873E+03    0.43457E-06   -0.50498E-06  3272   0.553E-03
  56 F= -.23408402E+03 E0= -.23408402E+03  d E =-.512131E-03
       N       E                     dE             d eps       ncg     rms          rms(c)
DAV:   1    -0.234082601588E+03    0.14157E-02   -0.22972E-01  3392   0.145E+00    0.137E-01
DAV:   2    -0.234084129974E+03   -0.15284E-02   -0.17071E-02  4280   0.377E-01    0.619E-02
DAV:   3    -0.234084128982E+03    0.99185E-06   -0.53178E-04  5600   0.683E-02    0.486E-02
DAV:   4    -0.234084116421E+03    0.12561E-04   -0.51264E-05  5360   0.191E-02    0.236E-02
DAV:   5    -0.234084112793E+03    0.36286E-05   -0.25559E-05  4296   0.128E-02    0.648E-03
DAV:   6    -0.234084113288E+03   -0.49508E-06   -0.47064E-06  3072   0.562E-03
  57 F= -.23408411E+03 E0= -.23408411E+03  d E =-.608546E-03
       N       E                     dE             d eps       ncg     rms          rms(c)
DAV:   1    -0.234083482652E+03    0.63014E-03   -0.10341E-01  3392   0.104E+00    0.970E-02
DAV:   2    -0.234084346685E+03   -0.86403E-03   -0.96671E-03  4264   0.264E-01    0.424E-02
DAV:   3    -0.234084350447E+03   -0.37622E-05   -0.29205E-04  5576   0.473E-02    0.335E-02
DAV:   4    -0.234084344678E+03    0.57694E-05   -0.23836E-05  5320   0.133E-02    0.162E-02
DAV:   5    -0.234084343074E+03    0.16041E-05   -0.11160E-05  4136   0.891E-03    0.449E-03
DAV:   6    -0.234084343210E+03   -0.13635E-06   -0.17430E-06  2232   0.392E-03
  58 F= -.23408434E+03 E0= -.23408434E+03  d E =-.229922E-03
       N       E                     dE             d eps       ncg     rms          rms(c)
DAV:   1    -0.234076912648E+03    0.74304E-02   -0.92921E-01  3392   0.311E+00    0.300E-01
DAV:   2    -0.234084720419E+03   -0.78078E-02   -0.87783E-02  4280   0.793E-01    0.122E-01
DAV:   3    -0.234084770282E+03   -0.49863E-04   -0.27694E-03  5640   0.143E-01    0.964E-02
DAV:   4    -0.234084719884E+03    0.50398E-04   -0.21837E-04  5424   0.404E-02    0.460E-02
DAV:   5    -0.234084707063E+03    0.12821E-04   -0.10317E-04  4856   0.270E-02    0.130E-02
DAV:   6    -0.234084708725E+03   -0.16615E-05   -0.20549E-05  4536   0.110E-02    0.140E-02
DAV:   7    -0.234084708510E+03    0.21503E-06   -0.23423E-06  2376   0.416E-03
  59 F= -.23408471E+03 E0= -.23408471E+03  d E =-.595222E-03
       N       E                     dE             d eps       ncg     rms          rms(c)
DAV:   1    -0.234083150185E+03    0.15585E-02   -0.20611E-01  3392   0.155E+00    0.155E-01
DAV:   2    -0.234085162858E+03   -0.20127E-02   -0.22935E-02  4224   0.395E-01    0.656E-02
DAV:   3    -0.234085168596E+03   -0.57375E-05   -0.69293E-04  5480   0.733E-02    0.505E-02
DAV:   4    -0.234085149922E+03    0.18673E-04   -0.79687E-05  5112   0.241E-02    0.227E-02
DAV:   5    -0.234085146429E+03    0.34935E-05   -0.24599E-05  5088   0.131E-02    0.761E-03
DAV:   6    -0.234085145684E+03    0.74477E-06   -0.19019E-06  2408   0.489E-03
  60 F= -.23408515E+03 E0= -.23408515E+03  d E =-.437174E-03
       N       E                     dE             d eps       ncg     rms          rms(c)
DAV:   1    -0.234084438721E+03    0.70771E-03   -0.86506E-02  3392   0.101E+00    0.101E-01
DAV:   2    -0.234085285296E+03   -0.84657E-03   -0.96451E-03  4232   0.256E-01    0.419E-02
DAV:   3    -0.234085288574E+03   -0.32778E-05   -0.29438E-04  5472   0.476E-02    0.322E-02
DAV:   4    -0.234085280714E+03    0.78594E-05   -0.33647E-05  5144   0.156E-02    0.145E-02
DAV:   5    -0.234085278877E+03    0.18371E-05   -0.95863E-06  4184   0.845E-03    0.486E-03
DAV:   6    -0.234085278425E+03    0.45251E-06   -0.10931E-06  1984   0.383E-03
  61 F= -.23408528E+03 E0= -.23408528E+03  d E =-.569915E-03
       N       E                     dE             d eps       ncg     rms          rms(c)
DAV:   1    -0.234085351256E+03   -0.72379E-04   -0.11011E-01  3328   0.869E-01    0.101E-01
DAV:   2    -0.234085884355E+03   -0.53310E-03   -0.59571E-03  4336   0.235E-01    0.409E-02
DAV:   3    -0.234085876272E+03    0.80828E-05   -0.20168E-04  5712   0.431E-02    0.309E-02
DAV:   4    -0.234085870333E+03    0.59392E-05   -0.23314E-05  4904   0.128E-02    0.136E-02
DAV:   5    -0.234085867984E+03    0.23487E-05   -0.92396E-06  3696   0.801E-03    0.425E-03
DAV:   6    -0.234085867946E+03    0.38395E-07   -0.20813E-06  2352   0.459E-03
  62 F= -.23408587E+03 E0= -.23408587E+03  d E =-.589521E-03
       N       E                     dE             d eps       ncg     rms          rms(c)
DAV:   1    -0.234085183593E+03    0.68439E-03   -0.22254E-01  3328   0.124E+00    0.143E-01
DAV:   2    -0.234086256839E+03   -0.10732E-02   -0.12012E-02  4360   0.334E-01    0.578E-02
DAV:   3    -0.234086240996E+03    0.15843E-04   -0.41124E-04  5696   0.613E-02    0.438E-02
DAV:   4    -0.234086229463E+03    0.11534E-04   -0.47672E-05  4936   0.183E-02    0.194E-02
DAV:   5    -0.234086225047E+03    0.44161E-05   -0.19596E-05  4184   0.116E-02    0.617E-03
DAV:   6    -0.234086225195E+03   -0.14854E-06   -0.53422E-06  3344   0.607E-03
  63 F= -.23408623E+03 E0= -.23408623E+03  d E =-.946770E-03
       N       E                     dE             d eps       ncg     rms          rms(c)
DAV:   1    -0.234085521891E+03    0.70316E-03   -0.11197E-01  3392   0.117E+00    0.961E-02
DAV:   2    -0.234086502926E+03   -0.98104E-03   -0.11031E-02  4240   0.271E-01    0.409E-02
DAV:   3    -0.234086509502E+03   -0.65758E-05   -0.38665E-04  5576   0.533E-02    0.311E-02
DAV:   4    -0.234086503701E+03    0.58004E-05   -0.27619E-05  5456   0.140E-02    0.160E-02
DAV:   5    -0.234086501161E+03    0.25403E-05   -0.12080E-05  3992   0.977E-03    0.551E-03
DAV:   6    -0.234086501464E+03   -0.30299E-06   -0.34388E-06  2528   0.512E-03
  64 F= -.23408650E+03 E0= -.23408650E+03  d E =-.276269E-03
       N       E                     dE             d eps       ncg     rms          rms(c)
DAV:   1    -0.234086491852E+03    0.93091E-05   -0.12740E-03  3440   0.125E-01    0.119E-02
DAV:   2    -0.234086503341E+03   -0.11489E-04   -0.13323E-04  4248   0.292E-02    0.459E-03
DAV:   3    -0.234086503369E+03   -0.27987E-07   -0.40169E-06  3064   0.604E-03
  65 F= -.23408650E+03 E0= -.23408650E+03  d E =-.278173E-03
       N       E                     dE             d eps       ncg     rms          rms(c)
DAV:   1    -0.234086412054E+03    0.91286E-04   -0.30073E-02  3328   0.518E-01    0.680E-02
DAV:   2    -0.234086648460E+03   -0.23641E-03   -0.26586E-03  4408   0.163E-01    0.300E-02
DAV:   3    -0.234086644645E+03    0.38146E-05   -0.77580E-05  5464   0.286E-02    0.228E-02
DAV:   4    -0.234086641550E+03    0.30951E-05   -0.94904E-06  4472   0.822E-03    0.115E-02
DAV:   5    -0.234086640502E+03    0.10474E-05   -0.52404E-06  3008   0.601E-03    0.330E-03
DAV:   6    -0.234086640610E+03   -0.10715E-06   -0.11871E-06  2032   0.412E-03
  66 F= -.23408664E+03 E0= -.23408664E+03  d E =-.137241E-03
       N       E                     dE             d eps       ncg     rms          rms(c)
DAV:   1    -0.234086370934E+03    0.26957E-03   -0.43395E-02  3328   0.623E-01    0.835E-02
DAV:   2    -0.234086716857E+03   -0.34592E-03   -0.39021E-03  4424   0.197E-01    0.352E-02
DAV:   3    -0.234086710880E+03    0.59767E-05   -0.11120E-04  5448   0.345E-02    0.268E-02
DAV:   4    -0.234086706541E+03    0.43391E-05   -0.14163E-05  4864   0.987E-03    0.132E-02
DAV:   5    -0.234086705040E+03    0.15006E-05   -0.71260E-06  3232   0.704E-03    0.393E-03
DAV:   6    -0.234086705182E+03   -0.14141E-06   -0.15546E-06  2104   0.440E-03
  67 F= -.23408671E+03 E0= -.23408671E+03  d E =-.201813E-03
       N       E                     dE             d eps       ncg     rms          rms(c)
DAV:   1    -0.234086440066E+03    0.26497E-03   -0.33477E-02  3392   0.619E-01    0.860E-02
DAV:   2    -0.234086822484E+03   -0.38242E-03   -0.43630E-03  4216   0.202E-01    0.386E-02
DAV:   3    -0.234086815087E+03    0.73969E-05   -0.11406E-04  5536   0.366E-02    0.286E-02
DAV:   4    -0.234086809359E+03    0.57282E-05   -0.15072E-05  4864   0.987E-03    0.150E-02
DAV:   5    -0.234086806825E+03    0.25346E-05   -0.73135E-06  3408   0.736E-03    0.477E-03
DAV:   6    -0.234086806701E+03    0.12371E-06   -0.18783E-06  2128   0.457E-03
  68 F= -.23408681E+03 E0= -.23408681E+03  d E =-.101519E-03
       N       E                     dE             d eps       ncg     rms          rms(c)
DAV:   1    -0.234086736797E+03    0.70028E-04   -0.69724E-03  3392   0.284E-01    0.401E-02
DAV:   2    -0.234086818570E+03   -0.81774E-04   -0.93851E-04  4216   0.937E-02    0.170E-02
DAV:   3    -0.234086817033E+03    0.15375E-05   -0.24557E-05  5464   0.170E-02    0.126E-02
DAV:   4    -0.234086815679E+03    0.13539E-05   -0.21235E-06  2448   0.465E-03    0.706E-03
DAV:   5    -0.234086815164E+03    0.51469E-06   -0.64329E-06  3576   0.606E-03
  69 F= -.23408682E+03 E0= -.23408682E+03  d E =-.109982E-03
       N       E                     dE             d eps       ncg     rms          rms(c)
DAV:   1    -0.234086614327E+03    0.20135E-03   -0.30759E-02  3328   0.508E-01    0.853E-02
DAV:   2    -0.234086895993E+03   -0.28167E-03   -0.31766E-03  4344   0.186E-01    0.373E-02
DAV:   3    -0.234086890096E+03    0.58965E-05   -0.78962E-05  5440   0.317E-02    0.266E-02
DAV:   4    -0.234086886002E+03    0.40938E-05   -0.11126E-05  4504   0.832E-03    0.145E-02
DAV:   5    -0.234086884611E+03    0.13911E-05   -0.51954E-06  3144   0.579E-03    0.486E-03
DAV:   6    -0.234086884606E+03    0.54315E-08   -0.10167E-06  1960   0.365E-03
  70 F= -.23408688E+03 E0= -.23408688E+03  d E =-.694415E-04
       N       E                     dE             d eps       ncg     rms          rms(c)
DAV:   1    -0.234086651463E+03    0.23315E-03   -0.27349E-02  3328   0.480E-01    0.807E-02
DAV:   2    -0.234086907280E+03   -0.25582E-03   -0.28863E-03  4352   0.178E-01    0.346E-02
DAV:   3    -0.234086901871E+03    0.54085E-05   -0.72335E-05  5440   0.304E-02    0.248E-02
DAV:   4    -0.234086898219E+03    0.36521E-05   -0.99552E-06  4360   0.793E-03    0.134E-02
DAV:   5    -0.234086896956E+03    0.12626E-05   -0.46843E-06  2936   0.564E-03    0.443E-03
DAV:   6    -0.234086896980E+03   -0.23658E-07   -0.11235E-06  2056   0.386E-03
  71 F= -.23408690E+03 E0= -.23408690E+03  d E =-.818159E-04
       N       E                     dE             d eps       ncg     rms          rms(c)
DAV:   1    -0.234086658052E+03    0.23890E-03   -0.34165E-02  3392   0.518E-01    0.948E-02
DAV:   2    -0.234086967669E+03   -0.30962E-03   -0.34975E-03  4432   0.199E-01    0.421E-02
DAV:   3    -0.234086960323E+03    0.73464E-05   -0.89598E-05  5664   0.343E-02    0.300E-02
DAV:   4    -0.234086955538E+03    0.47854E-05   -0.12646E-05  4648   0.879E-03    0.165E-02
DAV:   5    -0.234086953576E+03    0.19622E-05   -0.57467E-06  3016   0.628E-03    0.566E-03
DAV:   6    -0.234086953547E+03    0.28711E-07   -0.15995E-06  2176   0.410E-03
  72 F= -.23408695E+03 E0= -.23408695E+03  d E =-.565668E-04
       N       E                     dE             d eps       ncg     rms          rms(c)
DAV:   1    -0.234086756004E+03    0.19757E-03   -0.23808E-02  3392   0.434E-01    0.796E-02
DAV:   2    -0.234086974306E+03   -0.21830E-03   -0.24700E-03  4456   0.168E-01    0.350E-02
DAV:   3    -0.234086969163E+03    0.51431E-05   -0.63262E-05  5664   0.289E-02    0.250E-02
DAV:   4    -0.234086965767E+03    0.33962E-05   -0.87133E-06  4008   0.743E-03    0.138E-02
DAV:   5    -0.234086964364E+03    0.14033E-05   -0.47138E-06  2872   0.565E-03    0.444E-03
DAV:   6    -0.234086964341E+03    0.22050E-07   -0.10825E-06  2000   0.393E-03
  73 F= -.23408696E+03 E0= -.23408696E+03  d E =-.673615E-04
       N       E                     dE             d eps       ncg     rms          rms(c)
DAV:   1    -0.234086810283E+03    0.15408E-03   -0.18896E-02  3328   0.475E-01    0.589E-02
DAV:   2    -0.234087004061E+03   -0.19378E-03   -0.22157E-03  4336   0.149E-01    0.253E-02
DAV:   3    -0.234087000757E+03    0.33039E-05   -0.63252E-05  5640   0.268E-02    0.193E-02
DAV:   4    -0.234086998219E+03    0.25384E-05   -0.63356E-06  3728   0.720E-03    0.100E-02
DAV:   5    -0.234086997020E+03    0.11992E-05   -0.57598E-06  2952   0.636E-03    0.318E-03
DAV:   6    -0.234086997090E+03   -0.69846E-07   -0.13215E-06  2024   0.431E-03
  74 F= -.23408700E+03 E0= -.23408700E+03  d E =-.327482E-04
