LAMMPS (7 Aug 2019)
  using 1 OpenMP thread(s) per MPI task

# Input written to comply with LAMMPS 2017-08-11 00:00:00

# Atomic Configuration
units           metal
boundary        p p p
box             tilt large
atom_style      charge
read_data       triclinic_7x7x7.lmp
  orthogonal box = (0 0 0) to (72.8259 72.8259 72.8259)
  4 by 5 by 8 MPI processor grid
  reading atoms ...
  18522 atoms
  read_data CPU = 0.0562489 secs
group           lithium type 1
5831 atoms in group lithium
group           scandium type 2
1715 atoms in group scandium
group           chloride type 3
10976 atoms in group chloride
variable        T1 equal 600
variable        dt equal 0.001

# Potential Setup
pair_style      buck/coul/long 12.0
pair_coeff      * * 0.0 1.0 0.0
pair_coeff      1 1    360.530000  0.161000   0.000000 # Li Li
pair_coeff      1 3    421.040000  0.344000   0.000000 # Li Cl
pair_coeff      3 3   1227.200000  0.321000  14.530000 # Cl Cl
pair_coeff      2 3  12131.350000  0.250700   0.000000 # Sc Cl

kspace_style    pppm 1e-05

# General Setup
timestep        ${dt}
timestep        0.001

# Thermodynamic Information Output
thermo_style    custom step temp epair emol etotal press lx ly lz fmax cpu cpuremain
thermo          1000

# Intial Atom Velocity
velocity        all create ${T1} 365481 dist gaussian rot yes
velocity        all create 600 365481 dist gaussian rot yes

# Stage 0: npt_equilibriation
restart         0
fix             int all npt aniso 1.0 1.0 $(1000*dt) temp ${T1} ${T1} $(100*dt)
fix             int all npt aniso 1.0 1.0 1 temp ${T1} ${T1} $(100*dt)
fix             int all npt aniso 1.0 1.0 1 temp 600 ${T1} $(100*dt)
fix             int all npt aniso 1.0 1.0 1 temp 600 600 $(100*dt)
fix             int all npt aniso 1.0 1.0 1 temp 600 600 0.10000000000000000555
run             50000
PPPM initialization ...
  using 12-bit tables for long-range coulomb (../kspace.cpp:323)
  G vector (1/distance) = 0.265592
  grid = 64 64 64
  stencil order = 5
  estimated absolute RMS force accuracy = 0.000172762
  estimated relative force accuracy = 1.19976e-05
  using double precision MKL FFT
  3d grid and FFT values/proc = 6900 1792
Neighbor list info ...
  update every 1 steps, delay 10 steps, check yes
  max neighbors/atom: 2000, page size: 100000
  master list distance cutoff = 14
  ghost atom cutoff = 14
  binsize = 7, bins = 11 11 11
  1 neighbor lists, perpetual/occasional/extra = 1 0 0
  (1) pair buck/coul/long, perpetual
      attributes: half, newton on
      pair build: half/bin/atomonly/newton
      stencil: half/bin/3d/newton
      bin: standard
Per MPI rank memory allocation (min/avg/max) = 3.766 | 3.846 | 4.184 Mbytes
Step Temp E_pair E_mol TotEng Press Lx Ly Lz Fmax CPU CPULeft 
       0          600   -112596.25            0   -111159.83   -5732.5331      72.8259      72.8259      72.8259    5.7883151            0            0 
    1000    594.82552   -128276.33            0    -126852.3   -155.43199     76.39277     78.09212     78.05731    4.3559828     4.316288    211.49816 
    2000     602.4149   -128449.92            0   -127007.73     217.5246    76.499726    78.098301    78.059568    5.3007427     8.737432    209.69837 
    3000    595.72815   -128543.36            0   -127117.17    269.90992    76.515149    78.147783    77.835777    4.4245206    13.101776    205.26117 
    4000      604.205   -128581.94            0   -127135.46   -127.04641    76.571234    78.116267    77.750749    4.2527884    17.430117    200.44636 
    5000    598.81689   -128629.99            0   -127196.41    165.53275    76.447614    78.183348    77.685412    4.1847018     21.48507    193.36564 
    6000    597.63001   -128638.14            0   -127207.39   -35.226594    76.463126    78.224889    77.735635    4.5221204    25.788875    189.11842 
    7000    603.45387   -128660.37            0   -127215.68    239.04493    76.578635    78.145516    77.556011    4.1999231    29.897808    183.65797 
    8000    602.46561   -128682.99            0   -127240.67   -20.915529    76.683607    78.086208    77.519864    4.5782064    34.319553    180.17766 
    9000    602.54516   -128696.73            0   -127254.22    11.556076    76.696177    78.261253    77.375592    4.2957389    38.377803    174.83222 
   10000     596.0012   -128703.52            0   -127276.67   -296.03353    76.840793     78.23015    77.307629    3.8345231    42.494204    169.97682 
   11000    599.05039   -128712.89            0   -127278.74   -282.08553    76.560573    78.447548    77.298837    4.0553954     46.75192    165.75681 
   12000    602.25658   -128721.64            0   -127279.82    78.352725    76.509212    78.255749    77.285638    4.8767494    50.956211    161.36134 
   13000    593.52822   -128727.38            0   -127306.46    85.683146    76.408185    78.302957    77.255808    4.5801313    55.432051    157.76814 
   14000    600.73212   -128723.92            0   -127285.75    147.89284    76.415858    78.164284    77.361984    4.0595725    59.447431    152.86483 
   15000    595.19296   -128748.41            0    -127323.5     71.92101      76.2197    78.297423    77.292278    4.1488364    63.676163    148.57772 
   16000    601.24775   -128747.07            0   -127307.66    31.488506    76.228533    78.379683    77.124022     4.430166    67.776225    144.02448 
   17000    596.44639   -128760.65            0   -127332.74   -103.37114    76.389837    78.384059    77.140185    4.8041337    72.067972    139.89665 
   18000    601.09621   -128751.73            0   -127312.69   -360.88866    76.462976    78.310584    77.261003    4.3322895    76.298656    135.64206 
   19000    605.13551   -128778.17            0   -127329.46   -170.29169    76.402299    78.513162    77.023533    3.9388098    80.378421    131.14374 
   20000    601.27378   -128774.57            0    -127335.1    49.737632    76.208253    78.478392    77.146688    5.1377841    84.493179    126.73977 
   21000    600.66239   -128780.25            0   -127342.25    135.05748    76.083999     78.29843    77.278272    4.3863458    88.722215    122.52116 
   22000    593.77751   -128773.09            0   -127351.57   -59.869434     76.04086    78.505572    77.032908    3.9372534    92.991064    118.35226 
   23000    599.10092   -128775.33            0   -127341.07   -127.20206    76.097793    78.420092    77.141596     4.514327    97.352238    114.28306 
   24000    599.57305    -128782.2            0   -127346.81   -301.13011    76.009411    78.410092    77.093898    4.3544075    101.32301     109.7666 
   25000    593.66776   -128769.62            0   -127348.36   -213.73732    76.262823    78.460449    76.966682    4.2847727    105.52428    105.52428 
   26000    602.00429   -128777.08            0   -127335.87   -559.40444    76.159861    78.664812    77.106836    3.8335533    109.48062    101.05904 
   27000    600.47974   -128776.66            0    -127339.1    509.56554    76.174812    78.435529    76.910384    3.9332518    113.90986    97.034328 
   28000    603.38221   -128797.05            0   -127352.54   -102.59037     76.10985    78.569881    76.834268    5.5119709    117.94293     92.66945 
   29000    599.73548   -128802.05            0   -127366.27    61.729145     76.07585    78.592811    76.849079    5.3391025    122.04112    88.374606 
   30000    597.57039   -128783.07            0   -127352.47    10.369878    76.152613    78.555903     76.94803    3.6993378    126.01517    84.010115 
   31000    602.58831   -128803.51            0   -127360.89   -100.23112    76.114442    78.400203    76.995609    5.0045319    130.16101    79.776104 
   32000    597.74108   -128782.61            0    -127351.6   -363.01059     76.12926    78.452361    77.068492     5.325446    134.48296    75.646663 
   33000    599.82964   -128780.94            0   -127344.93     216.7562    76.118228    78.401342    76.930753    3.9847969    138.55096    71.374738 
   34000    592.93177   -128798.99            0   -127379.49    223.99416    76.132036    78.447737    76.946539    3.6210794     142.8415    67.219529 
   35000    598.99861   -128801.28            0   -127367.26   -335.63055    76.159051    78.386465    76.916031    4.6177972    146.79972    62.914166 
   36000    603.74098   -128787.23            0   -127341.86    120.36744    76.045373    78.355164    77.067888     4.454834     150.9375    58.697917 
   37000    597.38212   -128809.47            0   -127379.32    334.82973    75.966327     78.39481    76.955517    4.4540129    155.24865    54.546821 
   38000    596.07418   -128800.51            0   -127373.49   -414.09558    75.947274    78.438764    76.970313     3.915963    159.30424    50.306602 
   39000    601.36552   -128805.04            0   -127365.35   -342.89409    76.046354    78.364944    77.181746    4.4950749    163.31775    46.063981 
   40000    602.46089   -128802.87            0   -127360.57    230.94617    75.860862    78.447978     77.12245    3.9737605     167.3824      41.8456 
   41000    599.25683   -128809.38            0   -127374.74    77.185986    76.003877    78.535962    76.832501    3.6050635    171.66781    37.683178 
   42000    599.33438   -128797.65            0   -127362.82    221.47911    75.976357    78.418621    76.965995    3.6209564    175.99484    33.522828 
   43000     597.6896   -128815.93            0   -127385.04       279.62    76.033984    78.491835    76.790135    4.1331925     180.0692    29.313591 
   44000     602.3981   -128816.17            0   -127374.01   -159.81171     76.24279    78.251882    77.028605    4.5573673    184.35751    25.139661 
   45000    599.29779   -128798.58            0   -127363.84    114.37326    76.218714    78.380502    76.835559    4.1280835    188.34019    20.926688 
   46000    600.60468   -128813.37            0    -127375.5    170.04152    76.221834    78.469053    76.707296    4.1863273    192.66477    16.753458 
   47000    598.76288   -128813.93            0   -127380.47    274.17516    76.064391    78.669978    76.696028    4.3753731    196.79684    12.561501 
   48000    600.44547   -128820.35            0   -127382.86   -189.53869    76.236886    78.533459    76.710552    4.6747099    200.88303    8.3701261 
   49000    601.37166   -128795.53            0   -127355.83   -414.74323    76.198824    78.682868    76.738475    3.9568883    204.89187    4.1814668 
   50000    598.26857   -128844.45            0   -127412.18    190.67064    75.945195    78.678506    76.738942    4.1702559    209.00458            0 
Loop time of 209.005 on 160 procs for 50000 steps with 18522 atoms

Performance: 20.669 ns/day, 1.161 hours/ns, 239.229 timesteps/s
98.7% CPU use with 160 MPI tasks x 1 OpenMP threads

MPI task timing breakdown:
Section |  min time  |  avg time  |  max time  |%varavg| %total
---------------------------------------------------------------
Pair    | 33.828     | 37.497     | 43.826     |  27.6 | 17.94
Kspace  | 112.76     | 119.71     | 123.44     |  16.3 | 57.28
Neigh   | 0.97247    | 1.0636     | 1.2102     |   4.5 |  0.51
Comm    | 27.597     | 28.893     | 29.95      |   8.4 | 13.82
Output  | 0.0034759  | 0.0036966  | 0.028804   |   3.3 |  0.00
Modify  | 16.475     | 17.684     | 19.694     |  19.8 |  8.46
Other   |            | 4.155      |            |       |  1.99

Nlocal:    115.763 ave 128 max 104 min
Histogram: 5 5 17 16 36 35 21 15 8 2
Nghost:    3002.59 ave 3068 max 2938 min
Histogram: 4 7 14 22 33 30 26 13 5 6
Neighs:    26826.9 ave 31593 max 23290 min
Histogram: 8 9 23 38 34 19 14 7 6 2

Total # of neighbors = 4292298
Ave neighs/atom = 231.741
Neighbor list builds = 1784
Dangerous builds = 6

# Stage 1: nvt_equilibriation
unfix           int
restart         0
fix             int all nvt temp ${T1} ${T1} $(100*dt)
fix             int all nvt temp 600 ${T1} $(100*dt)
fix             int all nvt temp 600 600 $(100*dt)
fix             int all nvt temp 600 600 0.10000000000000000555
run             50000
PPPM initialization ...
  using 12-bit tables for long-range coulomb (../kspace.cpp:323)
  G vector (1/distance) = 0.269143
  grid = 72 72 72
  stencil order = 5
  estimated absolute RMS force accuracy = 0.000121161
  estimated relative force accuracy = 8.41417e-06
  using double precision MKL FFT
  3d grid and FFT values/proc = 8800 2880
Per MPI rank memory allocation (min/avg/max) = 3.902 | 4.163 | 4.341 Mbytes
Step Temp E_pair E_mol TotEng Press Lx Ly Lz Fmax CPU CPULeft 
   50000    598.26857    -128844.5            0   -127412.23    189.36451    75.945195    78.678506    76.738942     4.170271            0            0 
   51000    605.64657   -128837.39            0   -127387.45   -344.82924    75.945195    78.678506    76.738942    4.2509151     4.129786    202.35951 
   52000    594.84834   -128815.23            0   -127391.14    50.674097    75.945195    78.678506    76.738942    4.6931303      8.23194    197.56656 
   53000    599.39516   -128824.24            0   -127389.27    17.368685    75.945195    78.678506    76.738942    4.7243759    12.306945    192.80881 
   54000    597.52681   -128821.96            0   -127391.47    191.65909    75.945195    78.678506    76.738942    3.9591522    16.394408    188.53569 
   55000    605.46067   -128835.32            0   -127385.83    375.44464    75.945195    78.678506    76.738942    5.1919479    20.288028    182.59226 
   56000    596.09661   -128831.24            0   -127404.17   -152.74113    75.945195    78.678506    76.738942    3.7841155    24.437292    179.20682 
   57000    599.61657   -128824.16            0   -127388.66    67.433092    75.945195    78.678506    76.738942    4.0057956    28.346233    174.12687 
   58000    598.06267   -128830.98            0    -127399.2    101.46567    75.945195    78.678506    76.738942     4.125385    32.303844    169.59519 
   59000    602.66002   -128836.08            0   -127393.29   -48.409632    75.945195    78.678506    76.738942    4.2842128    36.089271    164.40668 
   60000    601.49137   -128849.75            0   -127409.76   -125.54179    75.945195    78.678506    76.738942    4.7637894     40.01681    160.06724 
   61000    597.12571   -128832.56            0   -127403.03   -127.24624    75.945195    78.678506    76.738942    3.9512697    44.261978    156.92883 
   62000    598.45645   -128828.59            0   -127395.87    164.43732    75.945195    78.678506    76.738942    4.3295778    48.447477    153.41701 
   63000    601.35699   -128824.48            0   -127384.81    583.97171    75.945195    78.678506    76.738942     4.686452    52.426087    149.21271 
   64000    599.31299   -128836.96            0   -127402.18   -300.69642    75.945195    78.678506    76.738942    4.2363744    56.476478    145.22523 
   65000    599.59886   -128841.52            0   -127406.06   -53.597438    75.945195    78.678506    76.738942    4.1375514    60.337951    140.78855 
   66000    596.68147   -128828.57            0    -127400.1   -152.16229    75.945195    78.678506    76.738942    5.0579598    64.439992    136.93498 
   67000    596.94247   -128846.54            0   -127417.44   -44.232267    75.945195    78.678506    76.738942    3.9173572    68.455968    132.88512 
   68000    603.73347   -128842.55            0   -127397.19    312.23504    75.945195    78.678506    76.738942    4.0425297     72.27169    128.48301 
   69000    597.04783   -128829.13            0   -127399.78   -316.38818    75.945195    78.678506    76.738942    4.3114703    75.970485    123.95184 
   70000     602.9349   -128828.41            0   -127384.96    221.80258    75.945195    78.678506    76.738942    3.9203407    79.937096    119.90565 
   71000    597.23085   -128831.52            0   -127401.74   -445.75649    75.945195    78.678506    76.738942    4.1194393    84.002616    116.00361 
   72000    601.61811   -128839.62            0   -127399.33   -555.32701    75.945195    78.678506    76.738942    4.3442294    88.185526    112.23613 
   73000    597.04304   -128831.17            0   -127401.83   -315.66247    75.945195    78.678506    76.738942    3.6063244    92.053114    108.06235 
   74000    602.02836   -128828.54            0   -127387.27   -291.20705    75.945195    78.678506    76.738942    3.8093606    96.037253    104.04036 
   75000    603.08412   -128836.79            0   -127392.99    324.52301    75.945195    78.678506    76.738942    4.2547996    99.884383    99.884384 
   76000    601.79006   -128850.47            0   -127409.76   -220.76642    75.945195    78.678506    76.738942    3.8708731    103.94119    95.945714 
   77000    594.36525   -128845.05            0   -127422.12   -342.84394    75.945195    78.678506    76.738942    4.3631677     107.9712    91.975472 
   78000     598.2256   -128831.21            0   -127399.04   -132.57112    75.945195    78.678506    76.738942    4.5713891    111.76581    87.815994 
   79000    602.12599   -128832.22            0   -127390.72   -75.194172    75.945195    78.678506    76.738942    4.5926572    115.62583    83.729049 
   80000    600.86775   -128826.77            0   -127388.27    29.492191    75.945195    78.678506    76.738942    4.4794874    119.43027     79.62018 
   81000    597.16531    -128852.6            0   -127422.97    -384.3291    75.945195    78.678506    76.738942    4.4509789    123.29152    75.565773 
   82000    599.11874   -128834.31            0   -127400.01   -165.15339    75.945195    78.678506    76.738942    4.0289429    127.48036    71.707703 
   83000    600.36602   -128835.28            0   -127397.99   -473.62319    75.945195    78.678506    76.738942    4.1846263    131.49446    67.739573 
   84000    604.03236   -128823.39            0   -127377.32   -459.02491    75.945195    78.678506    76.738942    3.7868135     135.6494    63.835012 
   85000    594.84336   -128840.82            0   -127416.75   -533.11302    75.945195    78.678506    76.738942    4.0057814     139.5468    59.805773 
   86000    601.51713   -128849.48            0   -127409.44   -229.89925    75.945195    78.678506    76.738942    3.9639093    143.56105    55.829298 
   87000     606.9656   -128847.84            0   -127394.75   -486.10091    75.945195    78.678506    76.738942     4.694611    147.66211    51.881283 
   88000    598.29691   -128833.01            0   -127400.67   -480.99157    75.945195    78.678506    76.738942    3.8129765    151.47046    47.832777 
   89000     601.0046   -128844.74            0   -127405.92   -579.81403    75.945195    78.678506    76.738942    4.0044693    155.23052    43.782966 
   90000    596.66047   -128840.44            0   -127412.02   -601.10898    75.945195    78.678506    76.738942    4.9981458    159.17517    39.793792 
   91000    604.21931   -128853.83            0   -127407.31   -286.77491    75.945195    78.678506    76.738942    5.4508992     163.1892    35.822019 
   92000    609.99419    -128847.5            0   -127387.16    8.9009393    75.945195    78.678506    76.738942    4.8423342    167.41453    31.888482 
   93000    598.63884   -128851.81            0   -127418.65    152.17623    75.945195    78.678506    76.738942    5.0595258    171.30509    27.886875 
   94000    597.37904   -128830.64            0    -127400.5   -217.43537    75.945195    78.678506    76.738942    4.7140835    175.41506    23.920235 
   95000    603.88845   -128856.55            0   -127410.83    -100.6593    75.945195    78.678506    76.738942    4.6184521     179.1226    19.902511 
   96000    603.38221   -128874.73            0   -127430.22    481.02555    75.945195    78.678506    76.738942     4.792343    183.16033    15.926986 
   97000    598.15606   -128846.14            0   -127414.13    -511.4254    75.945195    78.678506    76.738942    4.0540095     187.2443    11.951764 
   98000    594.49163    -128858.5            0   -127435.27   -266.04919    75.945195    78.678506    76.738942    3.9203985    191.10429    7.9626789 
   99000    608.15546   -128843.78            0   -127387.84   -290.16817    75.945195    78.678506    76.738942    4.3097291    194.96608    3.9788997 
  100000    600.27115   -128861.14            0   -127424.08   -350.14301    75.945195    78.678506    76.738942    3.9839975    198.73838            0 
Loop time of 198.738 on 160 procs for 50000 steps with 18522 atoms

Performance: 21.737 ns/day, 1.104 hours/ns, 251.587 timesteps/s
98.6% CPU use with 160 MPI tasks x 1 OpenMP threads

MPI task timing breakdown:
Section |  min time  |  avg time  |  max time  |%varavg| %total
---------------------------------------------------------------
Pair    | 31.262     | 36.669     | 40.854     |  28.6 | 18.45
Kspace  | 118.65     | 122.75     | 127.92     |  16.2 | 61.76
Neigh   | 0.93866    | 1.0338     | 1.1112     |   3.1 |  0.52
Comm    | 27.636     | 29.063     | 31.499     |  14.0 | 14.62
Output  | 0.0033622  | 0.0033961  | 0.0045524  |   0.2 |  0.00
Modify  | 7.836      | 8.5904     | 9.6551     |  14.9 |  4.32
Other   |            | 0.6335     |            |       |  0.32

Nlocal:    115.763 ave 127 max 101 min
Histogram: 3 5 6 15 15 41 38 19 13 5
Nghost:    3006.09 ave 3084 max 2960 min
Histogram: 15 20 26 32 27 19 11 7 1 2
Neighs:    26827.5 ave 30931 max 22875 min
Histogram: 3 13 13 31 26 20 24 19 9 2

Total # of neighbors = 4292394
Ave neighs/atom = 231.746
Neighbor list builds = 1738
Dangerous builds = 0

# Stage 2: main_nvt_simulation
unfix           int
compute         lithiummsd lithium msd com yes
compute         scandiummsd scandium msd com yes
compute         chloridemsd chloride msd com yes
fix             lithiummsdt lithium ave/time 1 1 1000 c_lithiummsd[4] file triclinic_7x7x7_600_li.txt
fix             scandiummymsdt scandium ave/time 1 1 1000 c_scandiummsd[4] file triclinic_7x7x7_600_sc.txt
fix             chloridemymsdt chloride ave/time 1 1 1000 c_chloridemsd[4] file triclinic_7x7x7_600_cl.txt
dump            atom_info all custom 1000 triclinic_7x7x7_600.lammpstrj element x y z q id type vx vy vz
dump_modify     atom_info append yes
dump_modify     atom_info sort id
dump_modify     atom_info element Li Sc Cl
restart         0
fix             int all nvt temp ${T1} ${T1} $(100*dt)
fix             int all nvt temp 600 ${T1} $(100*dt)
fix             int all nvt temp 600 600 $(100*dt)
fix             int all nvt temp 600 600 0.10000000000000000555
run             16000000
PPPM initialization ...
  using 12-bit tables for long-range coulomb (../kspace.cpp:323)
  G vector (1/distance) = 0.269143
  grid = 72 72 72
  stencil order = 5
  estimated absolute RMS force accuracy = 0.000121161
  estimated relative force accuracy = 8.41417e-06
  using double precision MKL FFT
  3d grid and FFT values/proc = 8800 2880
Per MPI rank memory allocation (min/avg/max) = 6.316 | 6.616 | 6.753 Mbytes
Step Temp E_pair E_mol TotEng Press Lx Ly Lz Fmax CPU CPULeft 
  100000    600.27115   -128861.14            0   -127424.08   -350.14301    75.945195    78.678506    76.738942    3.9839975            0            0 
  101000    599.42765    -128839.1            0   -127404.06   -505.80459    75.945195    78.678506    76.738942    4.0155108    4.0050311    64076.493 
  102000    596.76752   -128842.85            0   -127414.17   -726.94853    75.945195    78.678506    76.738942    5.5636794     8.185385    65474.902 
  103000    595.27585   -128854.65            0   -127429.54   -451.39241    75.945195    78.678506    76.738942    4.1242077    12.087805    64456.206 
  104000    601.80965   -128842.81            0   -127402.06    -530.0908    75.945195    78.678506    76.738942    4.2468191    16.099572    64382.193 
  105000    595.92823   -128850.59            0   -127423.92   -70.173502    75.945195    78.678506    76.738942    4.0745809     19.87636    63584.479 
  106000    599.75199   -128842.61            0   -127406.78    22.545093    75.945195    78.678506    76.738942    4.1496827    23.862235    63608.765 
  107000    599.52131   -128853.76            0   -127418.49    19.911538    75.945195    78.678506    76.738942    4.3018139    27.973091    63910.523 
  108000    604.87581   -128839.18            0   -127391.09    123.45103    75.945195    78.678506    76.738942    4.9131416    31.752518    63473.286 
  109000    602.39781   -128842.18            0   -127400.02   -299.83669    75.945195    78.678506    76.738942    4.0183293    35.530627     63130.03 
  110000    605.78368   -128849.61            0   -127399.34    84.575867    75.945195    78.678506    76.738942    3.9444951    39.376737    62963.404 
  111000    600.92805   -128855.98            0   -127417.35   -62.293267    75.945195    78.678506    76.738942    4.4107758    43.309432    62952.229 
  112000    593.40662   -128856.48            0   -127435.85    -301.8632    75.945195    78.678506    76.738942    3.9951209    47.402391    63155.787 
  113000    603.09968   -128851.05            0   -127407.21   -381.21318    75.945195    78.678506    76.738942    3.8704313    51.403065    63213.909 
  114000      601.598   -128857.57            0   -127417.33   -141.21128    75.945195    78.678506    76.738942    4.4541595    55.433456    63297.089 
  115000    599.00624   -128858.97            0   -127424.93   -634.93225    75.945195    78.678506    76.738942    4.5266129    59.316262    63211.364 
  116000    596.96753   -128846.11            0   -127416.95   -103.98367    75.945195    78.678506    76.738942    4.1133604    63.149937    63086.788 
  117000    602.43203   -128861.87            0   -127419.63   -767.54033    75.945195    78.678506    76.738942    4.6642372    67.174915    63156.275 
  118000    599.69282   -128841.99            0   -127406.31   -11.265718    75.945195    78.678506    76.738942    4.5210222    71.049797    63084.326 
  119000    599.26573   -128852.51            0   -127417.86   -65.547509    75.945195    78.678506    76.738942    4.7189769    74.821561    62932.809 
  120000    600.05111   -128849.83            0   -127413.29   -186.15384    75.945195    78.678506    76.738942    4.3357106    78.624815    62821.228 
  121000     600.5307    -128834.6            0   -127396.91   -184.74444    75.945195    78.678506    76.738942     4.942229    82.495778    62771.431 
  122000    597.02805   -128844.79            0   -127415.49   -158.39622    75.945195    78.678506    76.738942    4.4948909    86.506943    62827.634 
  123000    597.47328   -128844.99            0   -127414.63   -31.322687    75.945195    78.678506    76.738942    4.6245908    90.544264    62896.771 
  124000    598.64468   -128854.64            0   -127421.47   -169.30347    75.945195    78.678506    76.738942     4.861637    94.627754    62990.542 
  125000    598.66612   -128841.52            0    -127408.3    12.314324    75.945195    78.678506    76.738942    4.2360587    98.509677    62947.684 
  126000    590.07935      -128826            0   -127413.33   -123.08561    75.945195    78.678506    76.738942     4.697589    102.30589    62855.166 
  127000    597.92973   -128858.05            0   -127426.59   -478.45882    75.945195    78.678506    76.738942     4.541156    106.31714    62896.433 
  128000    602.47284   -128846.58            0   -127404.24   -388.38563    75.945195    78.678506    76.738942    3.9294668    110.29368    62914.668 
  129000    596.02714   -128854.27            0   -127427.36   -293.50573    75.945195    78.678506    76.738942    4.7627207    114.03078    62799.505 
  130000     602.2504   -128846.64            0   -127404.83   -120.74636    75.945195    78.678506    76.738942    4.3617522    117.82295    62721.082 
  131000    601.19377   -128855.43            0   -127416.15   -246.51013    75.945195    78.678506    76.738942    4.2834021    121.71323    62698.021 
  132000    598.42603   -128853.09            0   -127420.44   -127.37093    75.945195    78.678506    76.738942    4.5232898    125.66937    62709.017 
  133000    590.79404   -128832.75            0   -127418.37   -471.65136    75.945195    78.678506    76.738942    4.9592153    129.78423    62795.903 
  134000    603.70337   -128843.39            0   -127398.11   -288.78975    75.945195    78.678506    76.738942    4.0412299    133.60574    62739.686 
  135000    596.89686   -128853.29            0    -127424.3   -612.73306    75.945195    78.678506    76.738942    4.5503782    137.68151    62802.438 
  136000    600.75757   -128849.59            0   -127411.36    3.1499845    75.945195    78.678506    76.738942    4.2547872    141.54233    62766.158 
  137000    603.04707   -128855.84            0   -127412.13   -110.94502    75.945195    78.678506    76.738942    4.9635409    145.54593    62793.235 
  138000    593.91468   -128846.61            0   -127424.77   -215.82004    75.945195    78.678506    76.738942    4.6847953    149.48239     62790.47 
  139000    602.92057   -128837.21            0    -127393.8   -602.29435    75.945195    78.678506    76.738942    4.0737212    153.36424    62765.298 
  140000    599.01349   -128843.54            0   -127409.49   -322.87727    75.945195    78.678506    76.738942    4.6258159     157.1694    62710.592 
  141000    596.68834   -128851.94            0   -127423.45   -611.36102    75.945195    78.678506    76.738942    4.0958567    161.02106    62676.467 
  142000    597.18518   -128859.01            0   -127429.33   -688.69508    75.945195    78.678506    76.738942    4.0231231    164.89545    62652.418 
  143000    599.95043   -128855.43            0   -127419.13   -645.08029    75.945195    78.678506    76.738942    4.1310267    168.99194     62711.73 
  144000    596.98416   -128853.38            0   -127424.18   -518.30284    75.945195    78.678506    76.738942    4.7708223    172.89932    62699.579 
  145000    601.69167   -128852.57            0    -127412.1   -166.45854    75.945195    78.678506    76.738942    4.3650292    176.90397    62722.285 
  146000    595.73059   -128862.79            0    -127436.6    -383.5519    75.945195    78.678506    76.738942    3.8222375    180.69029    62668.106 
  147000    596.63328   -128859.54            0   -127431.19   -449.08451    75.945195    78.678506    76.738942    3.8505051    184.68138    62685.574 
  148000    600.09553   -128848.99            0   -127412.35   -520.19559    75.945195    78.678506    76.738942    4.2178357    188.65213    62695.393 
  149000    598.06646   -128866.59            0    -127434.8    164.06223    75.945195    78.678506    76.738942    4.3359338    192.56252    62684.994 
  150000    601.89925   -128846.39            0   -127405.43    49.922374    75.945195    78.678506    76.738942    4.5970159     196.4039    62652.843 
  151000    610.99529   -128839.76            0   -127377.02    -161.6453    75.945195    78.678506    76.738942    4.2810333    200.39272    62667.912 
  152000    597.41147   -128848.77            0   -127418.55    -405.1466    75.945195    78.678506    76.738942    4.9914337    204.37264    62679.517 
  153000    599.66103   -128851.88            0   -127416.28   -697.10538    75.945195    78.678506    76.738942    4.7861388    208.45488    62721.321 
  154000    599.91305   -128866.46            0   -127430.25   -842.13986    75.945195    78.678506    76.738942    3.8710389    212.38233    62715.714 
  155000     597.4749   -128843.74            0   -127413.37   -317.17493    75.945195    78.678506    76.738942    4.2493359    216.38243    62731.233 
  156000    606.39903   -128833.11            0   -127381.37   -280.00074    75.945195    78.678506    76.738942    4.1897267    220.19212    62691.842 
  157000    594.68054   -128852.45            0   -127428.77   -149.41883    75.945195    78.678506    76.738942     3.964423    224.28321    62732.408 
  158000    601.09386   -128838.92            0   -127399.89   -301.13023    75.945195    78.678506    76.738942    3.7615986    228.21572    62727.847 
  159000     595.3103   -128858.55            0   -127433.36   -181.91067    75.945195    78.678506    76.738942    4.0651355    231.96949    62675.011 
  160000    598.40039   -128846.47            0   -127413.88   -169.90331    75.945195    78.678506    76.738942    4.1910442    235.65621    62606.001 
  161000    599.98949   -128843.28            0   -127406.89    -306.9169    75.945195    78.678506    76.738942    4.3894173    239.49465    62578.775 
  162000     608.0489   -128855.05            0   -127399.37   -400.21057    75.945195    78.678506    76.738942    4.2571121    243.34854    62556.274 
  163000    597.53355   -128844.61            0    -127414.1   -500.65509    75.945195    78.678506    76.738942    4.4013036    247.39398    62582.823 
  164000    598.56109   -128860.66            0   -127427.68    205.01442    75.945195    78.678506    76.738942     4.082691    251.43883    62608.268 
  165000    601.54785    -128864.2            0   -127424.07   -603.77858    75.945195    78.678506    76.738942    4.5741622    255.46951    62629.333 
  166000     598.1384   -128848.99            0   -127417.03    78.410775    75.945195    78.678506    76.738942    4.2013685    259.36672    62617.415 
  167000    601.68111   -128861.24            0    -127420.8   -134.53914    75.945195    78.678506    76.738942    3.9436425    263.25195    62602.886 
  168000    596.32725   -128865.45            0   -127437.83    -516.5015    75.945195    78.678506    76.738942    5.3101639    267.26254    62618.041 
  169000    602.44382    -128859.6            0   -127417.33   -348.18781    75.945195    78.678506    76.738942    4.3110166    271.02385    62575.086 
  170000    599.32197   -128869.45            0   -127434.66   -342.01483    75.945195    78.678506    76.738942    4.3541999    274.80242     62537.18 
  171000    601.68707   -128848.29            0   -127407.84   -233.26612    75.945195    78.678506    76.738942    4.1936616    278.67291    62520.857 
  172000    595.92948   -128855.75            0   -127429.08   -234.65354    75.945195    78.678506    76.738942    4.7749293    282.68883    62537.051 
  173000    601.55403   -128850.58            0   -127410.45   -190.32181    75.945195    78.678506    76.738942    4.0529949    286.70255    62552.213 
  174000    599.28066   -128843.84            0   -127409.15   -351.22199    75.945195    78.678506    76.738942    4.7593418    290.79514    62583.831 
  175000    599.13746   -128854.33            0   -127419.98   -256.64154    75.945195    78.678506    76.738942    3.9809305     294.7551    62586.332 
  176000    597.82876   -128868.86            0   -127437.64   -688.77419    75.945195    78.678506    76.738942    4.4428262    298.72631    62591.023 
  177000    590.38872   -128862.02            0   -127448.62   -463.57395    75.945195    78.678506    76.738942     3.546714    302.62483    62580.457 
  178000    601.32484   -128872.81            0   -127433.22    -107.8444    75.945195    78.678506    76.738942    3.8394634    306.68078    62602.197 
  179000    599.44113   -128856.17            0   -127421.09   -369.81736    75.945195    78.678506    76.738942    3.8300716    310.49646    62574.863 
  180000    595.42249   -128862.68            0   -127437.22   -766.40186    75.945195    78.678506    76.738942    4.2903514    314.38496    62562.608 
  181000    595.90152   -128864.75            0   -127438.15    19.328984    75.945195    78.678506    76.738942    5.3642476    318.17022    62530.269 
  182000    601.84397    -128856.5            0   -127415.67   -40.411664    75.945195    78.678506    76.738942    3.9069217    322.01675     62510.52 
  183000     592.1127   -128870.22            0   -127452.69   -175.75582    75.945195    78.678506    76.738942    4.7281288    325.97232    62512.065 
  184000    598.81326   -128860.56            0   -127426.98   -536.98446    75.945195    78.678506    76.738942     4.004194    330.15001    62555.566 
  185000    602.63248   -128879.43            0   -127436.71   -19.951925    75.945195    78.678506    76.738942     4.033007    334.03859    62543.814 
  186000    605.48887   -128842.99            0   -127393.43     -103.466    75.945195    78.678506    76.738942    4.3202677    338.11505    62567.011 
  187000    594.54605   -128855.21            0   -127431.85   -521.87936    75.945195    78.678506    76.738942    4.0804428    341.92633    62541.077 
  188000    600.49923   -128878.24            0   -127440.63   -157.90693    75.945195    78.678506    76.738942    3.9836516    346.04242    62570.762 
  189000    599.14378   -128857.96            0   -127423.59   -262.42236    75.945195    78.678506    76.738942    4.7757806    349.98824    62569.246 
  190000    597.78476   -128837.14            0   -127406.03   -424.86176    75.945195    78.678506    76.738942    3.7256256     353.8874    62559.429 
  191000    599.75108   -128856.12            0    -127420.3   -19.737655    75.945195    78.678506    76.738942    4.3298688    357.62043    62520.697 
  192000     588.4659   -128861.62            0   -127452.82   -608.53004    75.945195    78.678506    76.738942     4.525082    361.46822     62502.57 
  193000    597.15553   -128852.09            0   -127422.49   -142.90724    75.945195    78.678506    76.738942    4.4398665    365.40483    62499.943 
  194000    602.21756   -128860.68            0   -127418.96    15.897136    75.945195    78.678506    76.738942    4.9085041    369.56318    62534.808 
  195000    604.69511   -128864.01            0   -127416.36   -334.94066    75.945195    78.678506    76.738942    3.8261876    373.48738    62529.651 
  196000    598.39068   -128873.34            0   -127440.78   -610.15324    75.945195    78.678506    76.738942     4.350987    377.54946    62547.361 
  197000    595.41838   -128867.46            0   -127442.01   -283.04522    75.945195    78.678506    76.738942    5.3298967    381.36521    62524.237 
  198000    595.57657   -128853.71            0   -127427.89   -475.54501    75.945195    78.678506    76.738942    4.0054134    385.48217    62550.382 
  199000     603.2435   -128858.31            0   -127414.13    -444.9869    75.945195    78.678506    76.738942    3.8698361    389.39209    62542.663 
  200000    595.99419    -128873.5            0   -127446.67   -323.87148    75.945195    78.678506    76.738942    3.9062465    393.14447    62509.971 
  201000    601.35375   -128851.48            0   -127411.82   -182.38909    75.945195    78.678506    76.738942    4.1000377    396.91141    62480.143 
  202000    598.07041   -128856.85            0   -127425.06   -566.52853    75.945195    78.678506    76.738942    6.2007202    400.77123    62465.304 
  203000    605.02045   -128846.36            0   -127397.92   -334.80616    75.945195    78.678506    76.738942    5.0088706    404.62804    62450.213 
  204000    598.96837    -128852.9            0   -127418.95   -252.98771    75.945195    78.678506    76.738942    4.2795238    408.70566    62469.088 
  205000    597.94705   -128864.22            0   -127432.71   -362.90131    75.945195    78.678506    76.738942    3.7265367    412.69401    62474.013 
  206000    598.61132   -128871.38            0   -127438.28     5.589804    75.945195    78.678506    76.738942    3.7128925    416.66167    62475.665 
  207000    605.35911   -128863.38            0   -127414.13   -123.72563    75.945195    78.678506    76.738942    4.1041158    420.49183    62456.792 
  208000    599.67644   -128872.11            0   -127436.47    360.68187    75.945195    78.678506    76.738942    4.1326257    424.55415    62472.357 
  209000    598.82935   -128850.21            0    -127416.6    40.758101    75.945195    78.678506    76.738942     4.367611    428.55147    62478.086 
  210000    598.29551   -128851.43            0    -127419.1   -588.77915    75.945195    78.678506    76.738942    4.2795228    432.21373    62435.238 
  211000    594.68219   -128862.82            0   -127439.13   -336.70001    75.945195    78.678506    76.738942    3.7720628    435.99934    62410.753 
  212000     603.0077   -128874.99            0   -127431.37   -509.91744    75.945195    78.678506    76.738942    4.2149274    439.78167    62386.171 
  213000    600.28618   -128850.55            0   -127413.45    -509.1945    75.945195    78.678506    76.738942    5.3971587    443.70899    62382.343 
  214000    603.70237   -128864.88            0    -127419.6   -119.75109    75.945195    78.678506    76.738942    4.2848935    447.88514    62413.187 
  215000    600.39647   -128878.29            0   -127440.92   -211.73533    75.945195    78.678506    76.738942    4.7847972    451.88499     62419.07 
  216000    598.07666   -128865.87            0   -127434.05   -160.77182    75.945195    78.678506    76.738942    4.0313354    456.00023    62440.583 
  217000    599.09197   -128865.02            0   -127430.78   -624.48666    75.945195    78.678506    76.738942    3.8489461    459.77975    62416.084 
  218000     599.7251   -128864.14            0   -127428.38   -295.05813    75.945195    78.678506    76.738942    3.9335113    463.78853    62422.792 
  219000    604.25604   -128854.07            0   -127407.47   -566.78223    75.945195    78.678506    76.738942    4.7551032    467.91884    62445.539 
  220000    605.81598    -128856.6            0   -127406.26    33.720553    75.945195    78.678506    76.738942    4.2300664    471.71231    62423.262 
  221000    603.65093   -128868.11            0   -127422.96    121.01347    75.945195    78.678506    76.738942    4.6726005    475.44601    62393.448 
  222000     597.5013   -128875.72            0   -127445.28   -196.36158    75.945195    78.678506    76.738942    3.7766007    479.23582    62371.363 
  223000    599.73446   -128844.64            0   -127408.86    124.63962    75.945195    78.678506    76.738942    4.6331267    483.20684    62372.968 
  224000    600.04357   -128865.01            0   -127428.49   -398.97927    75.945195    78.678506    76.738942    3.6327764    487.10823    62365.567 
  225000    607.10652   -128864.85            0   -127411.42    -483.9604    75.945195    78.678506    76.738942    4.7324118    491.14703    62375.672 
  226000    597.80537   -128853.67            0   -127422.51   -803.34944    75.945195    78.678506    76.738942    4.4559079    495.16284    62382.659 
  227000    600.38408   -128876.32            0   -127438.98   -561.84707    75.945195    78.678506    76.738942    4.3613126    499.06947    62375.825 
  228000     600.9922   -128856.59            0    -127417.8   -529.63686    75.945195    78.678506    76.738942    4.0883568    503.03397    62376.212 
  229000    601.64046   -128852.06            0   -127411.71   -379.46355    75.945195    78.678506    76.738942    3.9755114    507.17189    62397.869 
  230000     593.9256   -128861.51            0   -127439.63   -466.80522    75.945195    78.678506    76.738942    3.8323867    510.93188    62372.992 
  231000     599.6151   -128854.42            0   -127418.92   -259.92766    75.945195    78.678506    76.738942    4.7049753    514.66908    62345.676 
  232000    601.98697    -128863.6            0   -127422.43    -216.0455    75.945195    78.678506    76.738942    4.6258338     518.4824     62327.87 
  233000    596.35319   -128878.35            0   -127450.66   -465.19119    75.945195    78.678506    76.738942    4.0773852    522.40942    62323.836 
  234000    609.95417   -128857.02            0   -127396.77   -359.25187    75.945195    78.678506    76.738942    3.9331095    526.33797    62319.987 
  235000    600.78503   -128879.35            0   -127441.05   -661.33677    75.945195    78.678506    76.738942    4.6744575    530.46031     62338.91 
  236000    600.62065   -128880.55            0   -127442.64   -584.70827    75.945195    78.678506    76.738942    4.5736527    534.42752    62339.398 
  237000    602.67967   -128852.55            0   -127409.72   -546.47362    75.945195    78.678506    76.738942    4.2697971    538.41697    62342.396 
  238000    600.33605   -128872.82            0    -127435.6     -673.822    75.945195    78.678506    76.738942    4.2749545    542.18241    62319.546 
  239000    604.65146   -128864.13            0   -127416.58   -170.19872    75.945195    78.678506    76.738942    4.4547152    546.28616    62335.574 
  240000    595.54972   -128881.86            0   -127456.09   -446.79746    75.945195    78.678506    76.738942    4.1740385    550.19561    62329.302 
  241000    606.03379   -128859.87            0   -127409.01     110.5089    75.945195    78.678506    76.738942    4.1783135     553.9998    62311.226 
  242000    604.99061   -128866.11            0   -127417.75   -524.02955    75.945195    78.678506    76.738942    4.8041076    557.80655    62293.635 
  243000    596.06622    -128871.5            0    -127444.5   -249.54069    75.945195    78.678506    76.738942    4.2178294    561.71602    62287.628 
  244000     603.3464   -128853.86            0   -127409.43   -610.35268    75.945195    78.678506    76.738942    3.9625584    565.70174    62290.047 
  245000     597.5062   -128862.28            0   -127431.83   -427.96793    75.945195    78.678506    76.738942    4.6776642    569.86189     62311.45 
  246000    601.45335   -128857.94            0   -127418.04   -161.27295    75.945195    78.678506    76.738942    3.8491592    573.81729    62310.269 
  247000    600.49598   -128864.57            0   -127426.96   -374.62197    75.945195    78.678506    76.738942    3.8009215    577.79301    62311.242 
  248000    598.01421   -128842.81            0   -127411.14    -17.50259    75.945195    78.678506    76.738942    4.2312483     581.6657    62301.113 
  249000      598.186      -128872            0   -127439.93   -455.28911    75.945195    78.678506    76.738942    3.8481425    585.75214    62313.806 
  250000    603.50753    -128850.5            0   -127405.68   -386.90712    75.945195    78.678506    76.738942    4.4184743    589.69826    62311.449 
  251000    601.81225   -128865.84            0   -127425.09   -307.58509    75.945195    78.678506    76.738942    4.5757947    593.36362    62279.603 
  252000    598.81676   -128867.25            0   -127433.67   -199.87529    75.945195    78.678506    76.738942    4.5209919    597.21888    62267.926 
  253000    597.96907   -128869.55            0      -127438   -346.21181    75.945195    78.678506    76.738942    4.2939765    601.07712    62256.661 
  254000    597.61161   -128849.54            0   -127418.84   -111.31634    75.945195    78.678506    76.738942    4.7370857    604.99918    62252.059 
  255000    597.01825   -128855.45            0   -127426.17   -145.22085    75.945195    78.678506    76.738942    4.4871314    609.12988    62268.793 
  256000    602.54586   -128833.82            0   -127391.31   -643.29296    75.945195    78.678506    76.738942    4.4919422    613.08873    62267.807 
  257000    603.50369   -128868.49            0   -127423.69   -352.00496    75.945195    78.678506    76.738942    4.1895009    617.13894    62276.002 
  258000    602.56733   -128849.63            0   -127407.07   -189.35757    75.945195    78.678506    76.738942     4.178135    620.96553     62261.62 
  259000    600.98671   -128853.24            0   -127414.46   -18.485897    75.945195    78.678506    76.738942    3.7942373    625.02014    62270.088 
  260000    604.53282   -128875.18            0   -127427.92   -383.44453    75.945195    78.678506    76.738942    4.7318291    629.02811    62273.783 
  261000    591.46023   -128862.19            0   -127446.22   -388.56467    75.945195    78.678506    76.738942    5.1682067    632.78006    62252.195 
  262000    598.69344    -128865.5            0   -127432.21   -549.54554    75.945195    78.678506    76.738942    3.8504466    636.49814    62227.516 
  263000    602.90085   -128845.71            0   -127402.35   -315.11085    75.945195    78.678506    76.738942       4.3396    640.43394    62224.248 
  264000    595.16124   -128859.01            0   -127434.17   -219.65231    75.945195    78.678506    76.738942    4.5198902    644.25881    62210.259 
  265000    601.65547   -128856.99            0   -127416.61    -415.1055    75.945195    78.678506    76.738942    4.6769981    648.36751    62223.633 
  266000    595.32578    -128872.6            0   -127447.37   -254.21415    75.945195    78.678506    76.738942    4.5010361    652.31376    62221.302 
  267000    600.78206   -128860.93            0   -127422.65   -461.83944    75.945195    78.678506    76.738942    4.4745338    656.37384    62229.743 
  268000    602.18267   -128861.85            0    -127420.2   -327.40458    75.945195    78.678506    76.738942    3.8099502    660.24349    62220.089 
  269000      601.923   -128878.03            0   -127437.01    3.9088048    75.945195    78.678506    76.738942    4.0080692    664.24911    62223.241 
  270000    592.42047   -128871.68            0   -127453.41   -336.38882    75.945195    78.678506    76.738942    4.5459042    668.25606    62226.432 
  271000    595.71917   -128856.64            0   -127430.47   -334.77876    75.945195    78.678506    76.738942    4.6061434    672.03749    62208.663 
  272000     600.2219   -128867.46            0   -127430.51   -470.44213    75.945195    78.678506    76.738942    4.3377951    675.78864    62188.271 
  273000    602.03757    -128848.1            0   -127406.81    -393.5159    75.945195    78.678506    76.738942    4.9924043    679.67715    62180.637 
  274000    593.88997   -128863.18            0   -127441.39    -513.3716    75.945195    78.678506    76.738942    4.4309369    683.63227    62179.105 
  275000    604.35989    -128850.2            0   -127403.34   -364.10361    75.945195    78.678506    76.738942    4.6629632    687.70335    62188.032 
  276000    605.20189   -128856.52            0   -127407.65   -17.787896    75.945195    78.678506    76.738942    3.9625193    691.65482    62186.057 
  277000    600.71603   -128867.98            0   -127429.84   -490.32559    75.945195    78.678506    76.738942    4.5155268    695.65191    62188.137 
  278000    599.66519   -128845.48            0   -127409.86    102.28363    75.945195    78.678506    76.738942    4.4277711    699.58759     62184.69 
  279000    600.33594    -128862.7            0   -127425.48   -308.29826    75.945195    78.678506    76.738942    4.1261799    703.48615    62177.958 
  280000    602.75888   -128854.35            0   -127411.33    157.11369    75.945195    78.678506    76.738942    4.4146828    707.59766    62189.972 
  281000     599.5553   -128859.07            0   -127423.72   -255.45839    75.945195    78.678506    76.738942    4.1613211    711.42509     62176.98 
  282000    599.86172   -128869.47            0   -127433.39   -560.34822    75.945195    78.678506    76.738942    3.8097864    715.18624    62158.329 
  283000     598.8672   -128884.04            0   -127450.33   -135.23684    75.945195    78.678506    76.738942    4.5037792    719.00061    62144.441 
  284000    602.38432   -128856.34            0   -127414.22   -459.50103    75.945195    78.678506    76.738942    4.8293495    722.98378    62145.171 
  285000    600.21078   -128864.88            0   -127427.96   -221.61538    75.945195    78.678506    76.738942    3.8108217    727.02658    62150.948 
  286000     598.9175   -128851.64            0   -127417.82   -142.59596    75.945195    78.678506    76.738942    4.7303808    730.98302    62149.277 
  287000    602.28989   -128879.31            0   -127437.41   -512.03047    75.945195    78.678506    76.738942    3.9214354    734.95864    62149.203 
  288000    602.84724   -128867.01            0   -127423.78   -231.69385    75.945195    78.678506    76.738942    4.3521839    738.87789    62144.347 
  289000     601.5809   -128865.31            0   -127425.11   -756.46209    75.945195    78.678506    76.738942    4.4487278    742.86546    62145.216 
  290000    595.30935   -128865.97            0   -127440.78   -1051.7633    75.945195    78.678506    76.738942    4.0394938    747.02092    62160.004 
  291000    592.68957   -128879.66            0   -127460.75   -314.55726    75.945195    78.678506    76.738942    4.4414672    750.88075    62150.125 
  292000    601.74698   -128864.55            0   -127423.95   -594.66654    75.945195    78.678506    76.738942    3.9667914    754.73324    62139.703 
  293000    602.61159    -128877.8            0   -127435.13   -738.59092    75.945195    78.678506    76.738942    4.7140698    758.60094    62130.596 
  294000    603.25754   -128864.25            0   -127420.04   -263.09341    75.945195    78.678506    76.738942    4.4522721     762.6321     62134.86 
  295000    599.79523   -128876.68            0   -127440.76   -598.49822    75.945195    78.678506    76.738942    4.5233981    766.69481    62141.598 
  296000    595.85582    -128874.6            0    -127448.1   -437.96684    75.945195    78.678506    76.738942    3.6591038    770.83944    62154.829 
  297000    601.01049    -128863.6            0   -127424.76   -667.14436    75.945195    78.678506    76.738942    4.2176549    774.80107    62153.205 
  298000    603.76897   -128865.94            0    -127420.5   -5.1056914    75.945195    78.678506    76.738942    4.0368149    778.69134    62145.862 
  299000    600.11525   -128860.63            0   -127423.94    374.79229    75.945195    78.678506    76.738942    4.2183499    782.66588    62145.244 
  300000    596.87502   -128869.39            0   -127440.45   -193.30176    75.945195    78.678506    76.738942      4.40571    786.72631    62151.378 
  301000    603.13665   -128882.64            0   -127438.71   -210.40596    75.945195    78.678506    76.738942      4.19284    790.57434    62140.717 
  302000    599.13301   -128879.44            0    -127445.1   -71.809831    75.945195    78.678506    76.738942    3.7359581    794.37152    62126.145 
  303000    597.94248   -128865.83            0   -127434.34   -148.27839    75.945195    78.678506    76.738942    5.1919042    798.13693    62109.208 
  304000    599.19403    -128874.5            0   -127440.01   -420.55997    75.945195    78.678506    76.738942    4.3464441    802.12254    62109.449 
  305000    606.29744   -128868.44            0   -127416.94   -683.55405    75.945195    78.678506    76.738942    4.3009488     806.0971    62108.799 
  306000     599.0746   -128853.17            0   -127418.97   -440.85735    75.945195    78.678506    76.738942    4.8277555    810.20424    62118.281 
  307000    605.57749   -128870.95            0   -127421.18   -313.62411    75.945195    78.678506    76.738942    4.6936603    814.00393    62104.174 
  308000    603.85576   -128877.29            0   -127431.64   -325.78726    75.945195    78.678506    76.738942    4.2363921    817.99848    62104.962 
  309000    600.02271    -128859.9            0   -127423.43   -541.21779    75.945195    78.678506    76.738942    4.7556591    821.79642    62090.848 
  310000    596.29795   -128872.17            0   -127444.62   -675.32276    75.945195    78.678506    76.738942    4.4580337    825.96536    62104.729 
  311000    598.08616   -128872.75            0   -127440.91   -308.61043    75.945195    78.678506    76.738942    3.9207119    829.84965    62097.138 
  312000    602.50102   -128857.51            0   -127415.11   -254.40318    75.945195    78.678506    76.738942      4.21597    833.68055    62085.606 
  313000    604.51539   -128869.01            0   -127421.78   -508.75844    75.945195    78.678506    76.738942    4.4250282    837.53417    62075.831 
  314000    596.25069   -128873.33            0   -127445.89   -490.85074    75.945195    78.678506    76.738942     4.584878    841.48962    62073.622 
  315000    601.54889   -128850.02            0   -127409.89    -617.2052    75.945195    78.678506    76.738942    4.6966293    845.43952     62070.99 
  316000    592.73547   -128858.11            0   -127439.08   -463.18305    75.945195    78.678506    76.738942    4.8452906    849.62726    62085.726 
  317000     599.9491    -128880.2            0    -127443.9    -337.1836    75.945195    78.678506    76.738942    4.3487697    853.47612    62075.639 
  318000     599.0051   -128860.88            0   -127426.85   -664.40107    75.945195    78.678506    76.738942    4.1362921    857.61619    62086.692 
  319000    604.53079   -128866.14            0   -127418.87   -360.63618    75.945195    78.678506    76.738942    4.0458212    861.41167    62072.774 
  320000    601.02904   -128854.83            0   -127415.95   -58.735766    75.945195    78.678506    76.738942    4.9093473    865.57291    62085.184 
  321000    605.25158   -128879.67            0   -127430.68   -626.33324    75.945195    78.678506    76.738942    4.4830195    869.51289    62081.647 
  322000    601.01998   -128859.47            0   -127420.61   -750.27265    75.945195    78.678506    76.738942    4.0078821    873.26315    62064.621 
  323000    597.91161   -128872.18            0   -127440.76    -178.1757    75.945195    78.678506    76.738942    3.8887011    877.00669     62047.24 
  324000    597.18515   -128876.45            0   -127446.78   -780.24519    75.945195    78.678506    76.738942    4.7205667    880.93328    62042.872 
  325000    600.11261   -128848.79            0   -127412.11   -331.29018    75.945195    78.678506    76.738942    4.0506974    884.83449    62036.729 
  326000    604.98041   -128876.05            0   -127427.71   -628.23844    75.945195    78.678506    76.738942    6.2387693    888.91536    62043.145 
  327000    605.25306   -128885.53            0   -127436.53    6.2520739    75.945195    78.678506    76.738942    3.7537477    892.81076    62036.582 
  328000    600.15154    -128855.8            0   -127419.03     107.0083    75.945195    78.678506    76.738942    3.9391398    896.84122    62039.385 
  329000    596.62351   -128852.58            0   -127424.25   -532.91778    75.945195    78.678506    76.738942    4.7677712    900.73725     62032.87 
  330000    601.67663   -128861.26            0   -127420.83   -496.09009    75.945195    78.678506    76.738942    3.8984036     904.7511    62034.456 
  331000    602.30292   -128864.11            0   -127422.18   -928.28157    75.945195    78.678506    76.738942    3.9825543    908.67036    62029.536 
  332000    592.50919   -128869.26            0   -127450.78   -683.95441    75.945195    78.678506    76.738942    4.0275412    912.48202    62017.312 
  333000      612.065   -128861.43            0   -127396.13   -408.78679    75.945195    78.678506    76.738942    3.9723335    916.22698    62000.647 
  334000    596.53865   -128842.25            0   -127414.12    -507.8586    75.945195    78.678506    76.738942    4.3799605      920.121    61994.135 
  335000    601.29327   -128861.73            0   -127422.21   -469.33051    75.945195    78.678506    76.738942    3.7585555    924.04934    61989.948 
  336000    596.15877   -128857.34            0   -127430.12   -454.85785    75.945195    78.678506    76.738942    4.1323053    928.10118    61994.013 
  337000    598.74548   -128842.95            0   -127409.54   -427.91379    75.945195    78.678506    76.738942    3.8138412    932.15344    61998.037 
  338000    601.12549   -128862.73            0   -127423.62   -387.69021    75.945195    78.678506    76.738942    4.8921864    936.17567    62000.004 
  339000    598.76146   -128871.43            0   -127437.98   -372.78748    75.945195    78.678506    76.738942    4.0903154    939.94379    61985.164 
  340000    602.19019   -128878.87            0   -127437.21    -348.7501    75.945195    78.678506    76.738942    4.3420325    943.96511    61987.042 
  341000     601.0508   -128859.25            0   -127420.32   -613.39496    75.945195    78.678506    76.738942    4.4726324    948.04311    61992.578 
  342000    597.37178      -128866            0   -127435.87    -559.2726    75.945195    78.678506    76.738942    5.4705485    951.76529    61974.866 
  343000    602.73107   -128871.21            0   -127428.25   -445.78448    75.945195    78.678506    76.738942    3.7197945    955.55263    61961.493 
  344000    601.59098   -128870.06            0   -127429.84   -309.93845    75.945195    78.678506    76.738942    4.3151659     959.3967    61951.862 
  345000    600.30766   -128862.13            0   -127424.98   -826.18886    75.945195    78.678506    76.738942    4.0667626    963.32406    61947.635 
  346000    598.85348   -128848.53            0   -127414.86   -467.78914    75.945195    78.678506    76.738942    3.7866928    967.33861    61948.994 
  347000     600.4923   -128849.46            0   -127411.86   -504.59211    75.945195    78.678506    76.738942    4.9408985    971.38214    61952.158 
  348000    600.00464   -128866.43            0      -127430   -929.83927    75.945195    78.678506    76.738942    3.9307561    975.34583    61950.192 
  349000    598.30135   -128847.72            0   -127415.37   -355.80451    75.945195    78.678506    76.738942    4.3117961     979.1541    61938.379 
  350000    590.74976      -128853            0   -127438.73   -712.16438    75.945195    78.678506    76.738942       3.9771     983.0346     61931.18 
  351000    602.70253   -128866.42            0   -127423.54   -285.30663    75.945195    78.678506    76.738942     4.051249    987.16938    61939.963 
  352000    598.78005   -128862.52            0   -127429.02   -684.35201    75.945195    78.678506    76.738942    4.9588574    990.94356    61926.108 
  353000    594.31136   -128868.02            0   -127445.22   -583.40871    75.945195    78.678506    76.738942    4.1028121    994.67434    61909.632 
  354000    601.30683    -128870.4            0   -127430.86   -770.14984    75.945195    78.678506    76.738942    4.3609203    998.43357     61895.02 
  355000    598.72528    -128885.1            0   -127451.74   -504.09452    75.945195    78.678506    76.738942    4.3027097    1002.4422     61895.89 
  356000    598.97367   -128867.66            0    -127433.7   -483.57119    75.945195    78.678506    76.738942    4.0368376    1006.3833    61892.574 
  357000    600.02614   -128862.88            0    -127426.4    -416.4702    75.945195    78.678506    76.738942    3.8440405     1010.579    61904.846 
  358000    606.27365   -128857.44            0   -127406.01   -706.62229    75.945195    78.678506    76.738942    4.3486019    1014.5687    61904.419 
  359000    597.08252   -128872.42            0   -127442.99   -954.34644    75.945195    78.678506    76.738942    4.1776985    1018.4957    61900.156 
  360000    602.46211    -128857.9            0   -127415.59   -742.57017    75.945195    78.678506    76.738942    4.0027335    1022.3146    61889.355 
  361000    598.66941   -128863.85            0   -127430.62   -956.47694    75.945195    78.678506    76.738942    4.2127086    1026.4569    61898.102 
  362000    606.63267   -128849.66            0   -127397.36   -716.48129    75.945195    78.678506    76.738942    3.8448831    1030.3545    61892.056 
  363000    599.88135   -128865.37            0   -127429.23   -754.25649    75.945195    78.678506    76.738942     4.940181    1034.1492     61879.87 
  364000     600.4812   -128867.67            0    -127430.1   -536.09552    75.945195    78.678506    76.738942    5.2594525    1038.0458    61873.821 
  365000    602.76769    -128850.6            0   -127407.56   -187.53618    75.945195    78.678506    76.738942    3.7116204     1042.016    61872.157 
  366000    593.64966   -128865.91            0    -127444.7   -580.95366    75.945195    78.678506    76.738942     5.566402    1046.1475    61880.021 
  367000     600.0621   -128854.29            0   -127417.72   -442.49141    75.945195    78.678506    76.738942     4.631656    1050.2251    61884.612 
  368000    602.25234   -128859.77            0   -127417.96   -431.94467    75.945195    78.678506    76.738942    4.2292093    1054.2979    61888.859 
  369000    608.04932    -128853.3            0   -127397.61   -317.36074    75.945195    78.678506    76.738942    4.1350713    1058.2186    61884.153 
  370000    603.43347   -128852.65            0   -127408.01   -439.04899    75.945195    78.678506    76.738942    4.0726486    1062.0855    61876.316 
  371000    600.10208   -128871.88            0   -127435.22    121.82106    75.945195    78.678506    76.738942    4.2400277     1066.161    61880.614 
  372000    602.10993    -128870.1            0   -127428.63   -64.463169    75.945195    78.678506    76.738942    5.2822578    1069.9827    61870.177 
  373000    601.73529   -128866.79            0   -127426.22   -344.15542    75.945195    78.678506    76.738942    4.2675367    1073.7557    61856.983 
  374000    599.56575   -128848.32            0   -127412.94   -420.86259    75.945195    78.678506    76.738942    5.1376545    1077.5386    61844.425 
  375000    600.04823    -128870.9            0   -127434.37   -645.44781    75.945195    78.678506    76.738942     4.385291    1081.4232    61837.743 
  376000    601.47922   -128860.08            0   -127420.12   -190.44139    75.945195    78.678506    76.738942    3.9014449    1085.3924    61835.904 
  377000    599.06974   -128875.89            0    -127441.7   -465.34186    75.945195    78.678506    76.738942    4.4935641    1089.5729    61846.047 
  378000    598.51449   -128854.11            0   -127421.25   -229.54229    75.945195    78.678506    76.738942    4.8408934     1093.531    61843.507 
  379000    600.35932   -128870.64            0   -127433.36   -528.68659    75.945195    78.678506    76.738942    4.3494074    1097.4468    61838.569 
  380000    599.64062   -128881.43            0   -127445.87   -703.73849    75.945195    78.678506    76.738942     4.320684    1101.1992    61824.469 
  381000    598.34564   -128871.88            0   -127439.43    -250.0863    75.945195    78.678506    76.738942    4.5657616    1105.2937    61829.578 
  382000    593.44886    -128867.7            0   -127446.97   -647.07409    75.945195    78.678506    76.738942    4.3968535    1109.3107    61830.305 
  383000    596.38172   -128864.39            0   -127436.64   -403.55899    75.945195    78.678506    76.738942    3.9622709    1113.0883    61817.698 
  384000    595.18237   -128863.53            0   -127438.65   -397.95621    75.945195    78.678506    76.738942     4.067672    1116.8447    61803.986 
  385000    602.20134   -128856.62            0   -127414.94   -450.22587    75.945195    78.678506    76.738942    3.8058196     1120.772    61799.764 
  386000    601.79303   -128896.51            0    -127455.8   -118.39368    75.945195    78.678506    76.738942    5.0898548    1124.6757    61794.245 
  387000    599.61522   -128867.04            0   -127431.55   -362.86532    75.945195    78.678506    76.738942    4.1281378    1128.7423     61797.66 
  388000    598.97693   -128854.85            0   -127420.88   -477.92848    75.945195    78.678506    76.738942    4.2780448    1132.6848    61794.251 
  389000     597.2188   -128885.86            0   -127456.11   -632.26469    75.945195    78.678506    76.738942    4.5911537    1136.7726    61798.737 
  390000    601.81516   -128878.85            0   -127438.08   -498.11774    75.945195    78.678506    76.738942    4.1444356    1140.5028    61783.791 
  391000    606.74738    -128858.7            0   -127406.13   -384.73854    75.945195    78.678506    76.738942    4.4728193     1144.465    61781.447 
  392000    604.81927   -128863.75            0    -127415.8   -420.51043    75.945195    78.678506    76.738942    4.5108159    1148.4385    61779.698 
  393000    600.84909    -128869.7            0   -127431.25   -279.59913    75.945195    78.678506    76.738942    4.2728629    1152.2262    61767.977 
  394000    599.38741   -128861.76            0   -127426.81   -270.73231    75.945195    78.678506    76.738942    4.7010864    1155.9989    61755.508 
  395000    605.78163   -128854.18            0   -127403.92   -159.54472    75.945195    78.678506    76.738942    4.4231851    1159.8813    61748.937 
  396000    604.38859    -128869.6            0   -127422.67   -55.193016    75.945195    78.678506    76.738942     4.266149    1163.7924    61743.905 
  397000    600.78961   -128852.08            0   -127413.77    44.189024    75.945195    78.678506    76.738942    4.0435151    1167.8764    61748.023 
  398000    601.62344    -128862.3            0   -127421.99    16.270811    75.945195    78.678506    76.738942    3.9914135    1171.9581    61751.967 
  399000    598.49307   -128861.02            0   -127428.21    -488.6181    75.945195    78.678506    76.738942    4.9378991    1175.9084    61748.957 
  400000    594.82747   -128859.79            0   -127435.76   -409.71362    75.945195    78.678506    76.738942    4.8015113    1179.8444    61745.191 
  401000    599.80183    -128877.7            0   -127441.76   -551.55717    75.945195    78.678506    76.738942    3.7752715    1183.8273     61743.87 
  402000    602.85861   -128855.64            0   -127412.38   -220.75789    75.945195    78.678506    76.738942     4.107999    1187.9075    61747.589 
  403000    601.66973   -128850.48            0   -127410.07    181.66461    75.945195    78.678506    76.738942    4.1971009    1191.6874    61735.698 
  404000    599.47178   -128853.23            0   -127418.08   -411.58759    75.945195    78.678506    76.738942    4.5874744    1195.4188    61721.361 
  405000    595.38015   -128862.31            0   -127436.96   -370.27521    75.945195    78.678506    76.738942    3.9204993      1199.21    61710.167 
  406000    593.85906   -128869.45            0   -127447.73     89.25377    75.945195    78.678506    76.738942    3.7240337    1203.0603    61702.052 
  407000    602.55474   -128855.63            0    -127413.1   -329.84541    75.945195    78.678506    76.738942    4.3490384    1207.0232    61699.725 
  408000    601.51344   -128861.82            0   -127421.78    -125.0929    75.945195    78.678506    76.738942    4.2613414    1211.0249     61699.36 
  409000     601.9912   -128880.04            0   -127438.86    227.59552    75.945195    78.678506    76.738942    4.0478771     1214.963    61695.744 
  410000    596.42316   -128877.86            0   -127450.01    47.075093    75.945195    78.678506    76.738942    3.9693412    1218.8521    61689.643 
  411000    595.24221    -128854.3            0   -127429.27   -118.33873    75.945195    78.678506    76.738942    4.3835272    1222.7494    61683.973 
  412000     598.6561   -128874.62            0   -127441.42    136.51688    75.945195    78.678506    76.738942    4.9804336    1226.8213    61687.092 
  413000    591.69959   -128864.92            0   -127448.37   -522.81787    75.945195    78.678506    76.738942    4.0493825    1230.5832    61674.626 
  414000    601.47538   -128862.02            0   -127422.07   -568.36815    75.945195    78.678506    76.738942     4.065789     1234.374    61663.663 
  415000    593.05655   -128883.54            0   -127463.75   -525.25694    75.945195    78.678506    76.738942    4.0546135    1238.2367    61656.324 
  416000    605.38974   -128867.18            0   -127417.86   -283.66714    75.945195    78.678506    76.738942    5.9545638    1242.1906    61653.537 
  417000    605.04794   -128860.87            0   -127412.37   -926.05187    75.945195    78.678506    76.738942    4.5347217     1246.132    61650.121 
  418000    601.80103    -128859.9            0   -127419.17   -244.29335    75.945195    78.678506    76.738942    3.6450933    1250.2561    61655.711 
  419000    601.78483   -128871.85            0   -127431.16   -329.96793    75.945195    78.678506    76.738942    4.3597285    1254.1246    61648.675 
  420000    597.61534   -128870.37            0   -127439.67   -616.74081    75.945195    78.678506    76.738942    4.3051902    1258.1242    61648.084 
  421000    602.69591   -128874.32            0   -127431.45   -148.03667    75.945195    78.678506    76.738942    5.5032391    1262.0383    61643.296 
  422000    596.28943   -128872.77            0   -127445.24   -573.32407    75.945195    78.678506    76.738942    5.6206748    1266.2296    61652.012 
  423000    598.98454   -128874.38            0   -127440.39   -372.46589    75.945195    78.678506    76.738942    4.4818885    1270.1269    61646.377 
  424000    599.08998   -128878.13            0    -127443.9   -368.42276    75.945195    78.678506    76.738942    4.2102952    1273.9238    61635.893 
  425000    597.49505   -128883.81            0   -127453.39   -364.72025    75.945195    78.678506    76.738942    3.5403221    1277.7211    61625.473 
  426000    599.58559   -128863.55            0   -127428.12    -105.1782    75.945195    78.678506    76.738942    4.3056011    1281.6004    61619.034 
  427000     603.2636   -128885.15            0   -127440.92   -578.40267    75.945195    78.678506    76.738942    4.9830744     1285.507    61613.918 
  428000     602.4212   -128868.25            0   -127426.04   -661.34349    75.945195    78.678506    76.738942    5.1572348    1289.5808      61616.8 
  429000    599.71291   -128871.83            0   -127436.11   -381.12896    75.945195    78.678506    76.738942    3.9072856    1293.4802    61611.332 
  430000    598.83475   -128854.54            0   -127420.91   -479.02958    75.945195    78.678506    76.738942    4.1875867    1297.5116    61612.144 
  431000    599.85284   -128874.26            0    -127438.2    -285.7889    75.945195    78.678506    76.738942    4.0062166    1301.3913    61605.741 
  432000    605.17257   -128864.62            0   -127415.82   -297.43624    75.945195    78.678506    76.738942    4.2367985    1305.4857    61609.488 
  433000    594.79898   -128856.36            0   -127432.39   -78.650413    75.945195    78.678506    76.738942    3.9805773    1309.3888    61604.185 
  434000    597.82068   -128850.52            0   -127419.33   -131.85296    75.945195    78.678506    76.738942    4.5272721    1313.1132    61590.511 
  435000    593.62342   -128860.33            0   -127439.18   -481.34966    75.945195    78.678506    76.738942     5.146418    1316.9613    61582.683 
  436000    600.92625   -128856.07            0   -127417.44    -165.1313    75.945195    78.678506    76.738942    3.9027993    1320.8614    61577.302 
  437000     602.8235   -128858.49            0   -127415.32   -823.11311    75.945195    78.678506    76.738942     5.106316    1324.8156    61574.442 
  438000    600.39674   -128861.97            0    -127424.6   -256.30827    75.945195    78.678506    76.738942    4.4096778    1329.0333    61583.787 
  439000    599.15215   -128851.63            0   -127417.24   -330.34477    75.945195    78.678506    76.738942    4.0248052    1332.9057    61577.099 
  440000     598.7345   -128865.89            0   -127432.51   -199.88697    75.945195    78.678506    76.738942      4.69981    1336.9447    61578.098 
  441000    604.04749   -128859.06            0   -127412.95   -940.49886    75.945195    78.678506    76.738942    3.9113333    1340.7897    61570.164 
  442000    604.12698   -128868.83            0   -127422.53   -271.43951    75.945195    78.678506    76.738942    4.6807631    1344.8302    61571.203 
  443000    591.40129   -128871.91            0   -127456.08   -314.55514    75.945195    78.678506    76.738942    4.5412008    1348.8226    61570.016 
  444000     603.6534   -128862.66            0   -127417.49   -656.18929    75.945195    78.678506    76.738942    4.4741578    1352.5763    61557.948 
  445000    600.12442    -128877.8            0   -127441.08   -62.354452    75.945195    78.678506    76.738942    3.8889864    1356.3332    61546.075 
  446000    596.36106   -128850.23            0   -127422.53    -580.3295    75.945195    78.678506    76.738942    5.0149332    1360.2136    61539.839 
  447000    597.55175   -128857.28            0   -127426.72   -222.24191    75.945195    78.678506    76.738942     4.765482    1364.1195    61534.763 
  448000    601.59623   -128870.09            0   -127429.85   -196.14668    75.945195    78.678506    76.738942    4.6824305    1368.2027     61537.67 
  449000    597.54404   -128883.81            0   -127453.28   -867.58764    75.945195    78.678506    76.738942    4.3126759    1372.1538    61534.611 
  450000    597.77303    -128861.1            0   -127430.01   -758.37589    75.945195    78.678506    76.738942     3.901924    1376.2368    61537.444 
  451000    602.31697   -128868.85            0   -127426.89   -297.57827    75.945195    78.678506    76.738942    4.6984567    1380.0602    61528.665 
  452000    602.08261   -128846.88            0   -127405.48   -436.19091    75.945195    78.678506    76.738942    4.6743556    1383.9564    61523.155 
  453000    596.29383   -128866.55            0      -127439   -361.45575    75.945195    78.678506    76.738942    3.8790658    1387.9572    61522.282 
  454000    599.61048   -128871.41            0   -127435.93   -453.40438    75.945195    78.678506    76.738942    4.2664169    1391.7492    61512.171 
  455000    603.31415   -128865.18            0   -127420.83   -633.76346    75.945195    78.678506    76.738942    4.4538617    1395.5339    61501.768 
  456000      598.122   -128857.15            0   -127425.23   -557.93935    75.945195    78.678506    76.738942    3.9744592    1399.3706    61493.692 
  457000    598.43375   -128860.57            0    -127427.9   -241.66542    75.945195    78.678506    76.738942    4.3611973    1403.3041    61489.878 
  458000    597.79478   -128841.81            0   -127410.67   -426.40259    75.945195    78.678506    76.738942    4.0876227    1407.3386    61490.477 
  459000    602.61069   -128858.38            0   -127415.72    37.945086    75.945195    78.678506    76.738942    5.2336735    1411.4251    61493.313 
  460000    604.22331   -128855.31            0   -127408.79   -199.28068    75.945195    78.678506    76.738942    4.2544828    1415.3816    61490.467 
  461000    595.44032   -128861.39            0   -127435.89   -431.65173    75.945195    78.678506    76.738942    4.4677778    1419.2567    61484.088 
  462000    600.68394   -128867.95            0    -127429.9    159.63466    75.945195    78.678506    76.738942    5.2683315    1423.1437    61478.237 
  463000    600.77885   -128876.42            0   -127438.14   -106.59186    75.945195    78.678506    76.738942    3.8590227    1427.1166    61476.096 
  464000    605.22878   -128862.03            0   -127413.09   -30.741057    75.945195    78.678506    76.738942    4.4915804    1430.8376    61463.123 
  465000    602.16795   -128857.57            0   -127415.97   -91.868879    75.945195    78.678506    76.738942    4.2067562    1434.6147    61452.604 
  466000    602.31151   -128874.93            0   -127432.98    103.87162    75.945195    78.678506    76.738942    4.3343202    1438.3827    61441.734 
  467000    600.40838   -128854.82            0   -127417.43   -800.64387    75.945195    78.678506    76.738942    4.9171631    1442.3482    61439.317 
  468000      597.788   -128859.66            0   -127428.54   -13.936357    75.945195    78.678506    76.738942    4.6866386    1446.4015    61440.618 
  469000    597.54156   -128875.47            0   -127444.94   -383.17239    75.945195    78.678506    76.738942    3.9033579    1450.5459    61445.752 
  470000     609.3371   -128870.38            0   -127411.61   -35.904145    75.945195    78.678506    76.738942    3.7499343    1454.4715    61441.592 
  471000    603.20694   -128860.68            0   -127416.58   -260.67388    75.945195    78.678506    76.738942    4.4922011    1458.4488    61439.612 
  472000    598.36549   -128863.89            0   -127431.39   -282.36773    75.945195    78.678506    76.738942    4.4046788    1462.4169    61437.233 
[...]
15980000    593.53786   -128903.17            0   -127482.23   -549.20604    75.945195    78.678506    76.738942    3.6221944    62386.332    471.43324 
15981000    597.84174   -128872.54            0   -127441.29   -368.62654    75.945195    78.678506    76.738942    4.4586112    62390.323     467.5051 
15982000    592.85786   -128883.18            0   -127463.86   -189.35342    75.945195    78.678506    76.738942    3.7701923    62394.038     463.5749 
15983000    594.97162   -128886.51            0   -127462.13   -372.61301    75.945195    78.678506    76.738942    3.8140743    62397.837    459.64534 
15984000    600.44338   -128871.16            0   -127433.68   -213.09832    75.945195    78.678506    76.738942    3.9797252    62401.644    455.71586 
15985000    597.68815   -128880.73            0   -127449.84   -319.62999    75.945195    78.678506    76.738942    4.2090717    62405.671    451.78799 
15986000     600.5901   -128879.37            0   -127441.54    54.375312    75.945195    78.678506    76.738942    4.1913276    62409.779    447.86068 
15987000    602.68576   -128881.24            0    -127438.4   -481.37483    75.945195    78.678506    76.738942    4.0419591     62413.61    443.93139 
15988000    604.70445   -128888.49            0   -127440.81   -216.37978    75.945195    78.678506    76.738942    4.3313551     62417.66    440.00364 
15989000    596.99107   -128892.28            0   -127463.07   -103.93627    75.945195    78.678506    76.738942    4.2969012    62421.525     436.0746 
15990000     599.7566   -128875.93            0   -127440.09   -273.16819    75.945195    78.678506    76.738942    4.2111072    62425.516    432.14643 
15991000    600.30719   -128902.41            0   -127465.26   -767.56369    75.945195    78.678506    76.738942    4.2456088    62429.527    428.21839 
15992000     602.2434   -128891.33            0   -127449.55    -406.1541    75.945195    78.678506    76.738942    4.2492219     62433.25    424.28838 
15993000    606.83398   -128895.18            0   -127442.41   -43.896084    75.945195    78.678506    76.738942    3.7121039    62437.039    420.35885 
15994000    602.81272   -128883.77            0   -127440.62   -485.56667    75.945195    78.678506    76.738942    4.2335892    62440.832    416.42936 
15995000    599.78467   -128899.28            0   -127463.38   -43.751428    75.945195    78.678506    76.738942    4.9149232    62444.783    412.50092 
15996000    600.09864   -128895.04            0   -127458.38   -55.886932    75.945195    78.678506    76.738942    4.4196629    62448.965    408.57401 
15997000    596.99271   -128890.19            0   -127460.98   -281.52861    75.945195    78.678506    76.738942    3.9406257    62452.833    404.64502 
15998000    600.87771   -128886.22            0    -127447.7   -67.304535    75.945195    78.678506    76.738942    3.9673262    62456.786    400.71658 
15999000    594.92246   -128905.97            0   -127481.71    -566.1309    75.945195    78.678506    76.738942     4.426781    62460.711    396.78796 
16000000    600.43252   -128892.65            0    -127455.2    45.569789    75.945195    78.678506    76.738942    4.2565964    62464.576    392.85897 
16001000    599.42798   -128894.44            0   -127459.39   -507.12176    75.945195    78.678506    76.738942    3.7305844    62468.691    388.93154 
16002000     600.8251   -128888.15            0   -127449.76   -665.19984    75.945195    78.678506    76.738942    4.4858372    62472.464    385.00198 
16003000    602.98249   -128897.32            0   -127453.76    104.06169    75.945195    78.678506    76.738942    4.8394958    62476.251    381.07252 
16004000    603.96187   -128895.27            0   -127449.36   -30.121441    75.945195    78.678506    76.738942    3.9793524    62479.986    377.14277 
16005000    596.53018   -128904.48            0   -127476.37   -633.52513    75.945195    78.678506    76.738942     4.285552     62483.83     373.2137 
16006000    600.31597   -128884.13            0   -127446.95   -197.47364    75.945195    78.678506    76.738942    5.6136123     62487.89    369.28591 
16007000    596.80628   -128888.57            0    -127459.8   -312.14802    75.945195    78.678506    76.738942    5.0330196    62491.907    365.35785 
16008000    596.75438   -128883.57            0   -127454.93   -841.87013    75.945195    78.678506    76.738942    4.7418945    62495.806     361.4291 
16009000    596.23154   -128905.59            0    -127478.2    -320.0953    75.945195    78.678506    76.738942    4.1097686     62499.78    357.50079 
16010000    600.21941    -128888.1            0   -127451.16   -397.32054    75.945195    78.678506    76.738942    4.2943982    62503.593    353.57155 
16011000    602.31058   -128881.84            0    -127439.9   -699.31271    75.945195    78.678506    76.738942    3.9929581    62507.707    349.64401 
16012000    595.06822   -128889.48            0   -127464.87   -171.03805    75.945195    78.678506    76.738942    4.2792979    62511.474    345.71454 
16013000    601.67218   -128899.73            0   -127459.31    -528.0885    75.945195    78.678506    76.738942    4.3366056    62515.211    341.78492 
16014000     606.1078   -128892.52            0   -127441.48     213.3198    75.945195    78.678506    76.738942    4.9127209    62519.007    337.85564 
16015000    602.76918   -128904.78            0   -127461.73   -504.78762    75.945195    78.678506    76.738942    4.0062113    62522.852    333.92664 
16016000    597.43253   -128895.73            0   -127465.46   -403.55237    75.945195    78.678506    76.738942    4.5020112    62526.859     329.9985 
16017000    595.31754   -128866.91            0   -127441.71   -616.61841    75.945195    78.678506    76.738942    4.1410142    62531.051    326.07132 
16018000     594.5084   -128878.85            0   -127455.59   -617.43726    75.945195    78.678506    76.738942    4.2943328    62534.975    322.14273 
16019000    591.56681   -128877.62            0   -127461.39   -399.00073    75.945195    78.678506    76.738942    5.0439268     62539.01     318.2147 
16020000    602.24187   -128885.48            0    -127443.7   -115.06803    75.945195    78.678506    76.738942    5.2366741     62542.79    314.28538 
16021000    597.06186   -128873.05            0   -127443.67   -282.03882    75.945195    78.678506    76.738942    4.5298191    62546.722    310.35683 
16022000    599.25771   -128898.49            0   -127463.85    117.06398    75.945195    78.678506    76.738942    4.6783063    62550.726    306.42863 
16023000    601.99382   -128887.48            0   -127446.29   -435.73011    75.945195    78.678506    76.738942    4.6342671    62554.515    302.49938 
16024000     601.5432   -128882.15            0   -127442.04   -382.20792    75.945195    78.678506    76.738942    4.3167896    62558.204    298.56967 
16025000    603.30401   -128901.93            0    -127457.6    -569.7266    75.945195    78.678506    76.738942    3.8909883    62562.113    294.64103 
16026000    602.15278   -128906.15            0   -127464.58   -509.91875    75.945195    78.678506    76.738942    4.8556032    62566.085    290.71269 
16027000    600.76153   -128887.63            0   -127449.39   -96.202251    75.945195    78.678506    76.738942    3.9159546    62570.239    286.78517 
16028000    596.27379   -128884.41            0   -127456.91   -330.49545    75.945195    78.678506    76.738942    4.3609176    62574.113    282.85636 
16029000    602.88709   -128891.98            0   -127448.66    16.675206    75.945195    78.678506    76.738942    4.3289722     62578.14    278.92824 
16030000    603.88857   -128897.92            0    -127452.2   -278.65616    75.945195    78.678506    76.738942    4.0364333    62581.992    274.99934 
16031000    598.21219   -128892.72            0   -127460.58   -485.42993    75.945195    78.678506    76.738942    3.7976518    62586.031    271.07125 
16032000    594.09235   -128886.77            0    -127464.5   -242.11267    75.945195    78.678506    76.738942    4.6070525    62590.016    267.14293 
16033000    599.29823   -128893.15            0   -127458.42   -82.915949    75.945195    78.678506    76.738942    4.4293738    62593.848    263.21395 
16034000    605.17243    -128881.9            0    -127433.1   -283.42833    75.945195    78.678506    76.738942    5.0868857    62597.609    259.28469 
16035000     602.2099   -128878.47            0   -127436.76   -161.17633    75.945195    78.678506    76.738942    5.8219434    62601.317    255.35523 
16036000    601.76174   -128889.71            0   -127449.07   -212.91803    75.945195    78.678506    76.738942    4.6390343    62605.273     251.4268 
16037000    599.93537   -128901.67            0   -127465.41   -364.58838    75.945195    78.678506    76.738942      5.58692    62609.381    247.49896 
16038000    597.45362   -128880.57            0   -127450.25    -297.1799    75.945195    78.678506    76.738942    4.0085039    62613.275    243.57028 
16039000    600.84657   -128872.17            0   -127433.73   -197.81363    75.945195    78.678506    76.738942    4.7985343    62617.255    239.64192 
16040000    600.10882    -128884.2            0   -127447.53   -130.52891    75.945195    78.678506    76.738942    4.5983424    62621.252    235.71362 
16041000    598.25154   -128901.77            0   -127469.54    -748.0342    75.945195    78.678506    76.738942     3.932329    62625.195    231.78511 
16042000    600.10052   -128884.65            0   -127447.99   -386.82393    75.945195    78.678506    76.738942    4.4193618    62629.325    227.85729 
16043000    599.55763    -128898.1            0   -127462.74    -569.3499    75.945195    78.678506    76.738942    4.4554956      62633.1    223.92816 
16044000    599.84623    -128891.1            0   -127455.05   -127.52102    75.945195    78.678506    76.738942    4.3231315    62636.802     219.9988 
16045000    601.26795   -128893.22            0   -127453.77   -63.799442    75.945195    78.678506    76.738942    5.3870638    62640.584    216.06975 
16046000    603.51057   -128877.61            0   -127432.79    32.789062    75.945195    78.678506    76.738942    4.4289887     62644.36    212.14069 
16047000    601.16361   -128876.66            0   -127437.46    15.981249    75.945195    78.678506    76.738942    4.1906814    62648.573     208.2131 
16048000    602.58965   -128896.21            0   -127453.59   -489.78886    75.945195    78.678506    76.738942    4.4540794    62652.536    204.28467 
16049000    602.31261   -128885.99            0   -127444.03     -500.415    75.945195    78.678506    76.738942    3.8844566    62656.465    200.35612 
16050000    602.63253    -128901.4            0   -127458.68   -178.91724    75.945195    78.678506    76.738942    3.7029342    62660.436     196.4277 
16051000    605.69064   -128880.94            0    -127430.9    122.27087    75.945195    78.678506    76.738942    4.3081287    62664.289    192.49891 
16052000    597.79493   -128874.07            0   -127442.93    155.38644    75.945195    78.678506    76.738942    4.4419535    62668.368    188.57082 
16053000     599.4048   -128888.78            0   -127453.79   -26.547461    75.945195    78.678506    76.738942    4.7841947    62672.137    184.64179 
16054000    602.56094   -128905.49            0   -127462.94    185.13174    75.945195    78.678506    76.738942    4.0342142    62675.919    180.71282 
16055000    598.77888   -128890.83            0   -127457.34   -330.70184    75.945195    78.678506    76.738942    3.9414895    62679.772    176.78406 
16056000     595.0132   -128895.74            0   -127471.26    287.31543    75.945195    78.678506    76.738942    4.1136266    62683.604    172.85526 
16057000    602.60107   -128888.67            0   -127446.02   -191.15786    75.945195    78.678506    76.738942    4.2666494    62687.668     168.9271 
16058000    596.43399   -128891.18            0    -127463.3   -394.00448    75.945195    78.678506    76.738942    4.3594507    62691.758    164.99899 
16059000    597.75892   -128874.82            0   -127443.77   -502.41754    75.945195    78.678506    76.738942    4.8488658    62695.562    161.07012 
16060000    601.78475    -128897.4            0   -127456.71   -426.20252    75.945195    78.678506    76.738942    4.4599732    62699.591    157.14183 
16061000    597.06693   -128886.94            0   -127457.54   -330.45822    75.945195    78.678506    76.738942    3.8064318    62703.576    153.21342 
16062000    601.61889   -128908.88            0   -127468.59   -596.49214    75.945195    78.678506    76.738942    4.8988329      62707.7    149.28534 
16063000    603.02099   -128894.46            0   -127450.81   -435.65593    75.945195    78.678506    76.738942    4.6113759    62711.549    145.35659 
16064000    601.31679   -128894.11            0   -127454.54   -60.484156    75.945195    78.678506    76.738942    5.2370385     62715.38    141.42782 
16065000    597.89664   -128907.74            0   -127476.36   -267.02694    75.945195    78.678506    76.738942    3.9649617    62719.151    137.49892 
16066000    605.27317   -128896.59            0   -127447.55   -151.56849    75.945195    78.678506    76.738942    4.1662643    62722.945    133.57009 
16067000    607.00038   -128882.75            0   -127429.58   -432.23984    75.945195    78.678506    76.738942    5.0958308    62726.855    129.64152 
16068000    598.32991   -128884.83            0   -127452.42   -63.347216    75.945195    78.678506    76.738942    3.9148787    62731.051    125.71353 
16069000    596.75398   -128912.11            0   -127483.47   -291.91726    75.945195    78.678506    76.738942    4.9083585    62734.846    121.78472 
16070000    596.09834   -128897.39            0   -127470.31   -339.88485    75.945195    78.678506    76.738942    3.8393618    62738.917    117.85645 
16071000     599.9997   -128886.62            0    -127450.2   -315.29332    75.945195    78.678506    76.738942    5.1416587    62742.876    113.92796 
16072000    600.99631   -128908.65            0   -127469.85    -482.5785    75.945195    78.678506    76.738942     4.152439    62746.879    109.99954 
16073000    598.62795   -128884.07            0   -127450.94   -568.81769    75.945195    78.678506    76.738942    5.2404012    62750.748    106.07088 
16074000    601.80931   -128902.64            0   -127461.89   -437.44615    75.945195    78.678506    76.738942    4.1925784    62754.562    102.14214 
16075000    598.25423   -128891.68            0   -127459.44   -205.36314    75.945195    78.678506    76.738942    4.2956353    62758.335    98.213357 
16076000     600.9724    -128893.9            0   -127455.16   -41.752015    75.945195    78.678506    76.738942    4.8210038    62762.125    94.284614 
16077000    596.27703   -128895.53            0   -127468.02   -460.25806    75.945195    78.678506    76.738942    4.0937391    62766.127    90.356194 
16078000    595.04463   -128877.07            0   -127452.52   -143.35411    75.945195    78.678506    76.738942    3.9594614    62770.243    86.427922 
16079000    606.04042   -128897.79            0   -127446.91   -310.13154    75.945195    78.678506    76.738942    3.9234161     62774.18    82.499392 
16080000     599.7022   -128891.31            0   -127455.61    2.4938499    75.945195    78.678506    76.738942    4.0602099    62778.341     78.57114 
16081000    603.46105    -128890.4            0    -127445.7   -26.015424    75.945195    78.678506    76.738942    4.4231083    62782.165    74.642459 
16082000    596.18351   -128899.73            0   -127472.45   -128.89525    75.945195    78.678506    76.738942    4.0978145    62786.226    70.714058 
16083000    595.50381   -128912.48            0   -127486.83   -689.82567    75.945195    78.678506    76.738942    4.0288745    62790.161    66.785506 
16084000    603.67529   -128888.04            0   -127442.82   -503.32183    75.945195    78.678506    76.738942    4.4503201    62793.992    62.856849 
16085000    603.01826   -128904.57            0   -127460.93   -72.464699    75.945195    78.678506    76.738942    4.1782881    62797.759    58.928144 
16086000     598.2726   -128891.87            0   -127459.59    -182.1504    75.945195    78.678506    76.738942    4.3754758    62801.538    54.999471 
16087000    593.95162   -128887.23            0   -127465.29   -540.17543    75.945195    78.678506    76.738942    4.0589742     62805.48    51.070947 
16088000    602.53768   -128878.94            0   -127436.45   -578.75169    75.945195    78.678506    76.738942    4.2757345    62809.595    47.142553 
16089000    601.85174   -128895.94            0   -127455.09   -557.69594    75.945195    78.678506    76.738942    4.6751364    62813.564    43.214035 
16090000     596.0176   -128893.48            0    -127466.6   -521.08452    75.945195    78.678506    76.738942    4.9590969    62817.592    39.285549 
16091000    595.37228   -128899.23            0   -127473.89   -389.98659    75.945195    78.678506    76.738942    3.9097889    62821.449    35.356953 
16092000    599.83504    -128890.1            0   -127454.08   -345.00805    75.945195    78.678506    76.738942    4.0943576    62825.414    31.428421 
16093000     602.9505   -128898.64            0   -127455.16    161.23354    75.945195    78.678506    76.738942    4.1252697    62829.447    27.499914 
16094000    603.49162   -128899.25            0   -127454.47   -138.79567    75.945195    78.678506    76.738942    5.5324806     62833.19    23.571285 
16095000    603.64968    -128877.2            0   -127432.05   -307.13203    75.945195    78.678506    76.738942    4.8496008     62836.93    19.642679 
16096000    598.25326   -128882.75            0   -127450.52   -650.95284    75.945195    78.678506    76.738942    3.9344574    62840.702    15.714104 
16097000    598.33024   -128891.25            0   -127458.83   -654.60808    75.945195    78.678506    76.738942    4.0045196    62844.708    11.785593 
16098000    597.74193    -128882.8            0   -127451.79   -143.53092    75.945195    78.678506    76.738942    4.6708302    62848.764    7.8570776 
16099000    604.98394   -128892.82            0   -127444.47   -505.27773    75.945195    78.678506    76.738942    4.0758905    62852.791     3.928545 
16100000    598.71096    -128910.4            0   -127477.07    -262.0392    75.945195    78.678506    76.738942    4.2802023    62856.713            0 
Loop time of 62856.7 on 160 procs for 16000000 steps with 18522 atoms

Performance: 21.993 ns/day, 1.091 hours/ns, 254.547 timesteps/s
98.6% CPU use with 160 MPI tasks x 1 OpenMP threads

MPI task timing breakdown:
Section |  min time  |  avg time  |  max time  |%varavg| %total
---------------------------------------------------------------
Pair    | 10592      | 11684      | 12620      | 421.0 | 18.59
Kspace  | 38125      | 39097      | 40399      | 243.8 | 62.20
Neigh   | 316.35     | 332.75     | 349.84     |  28.7 |  0.53
Comm    | 8775.6     | 9179.1     | 9927.1     | 226.5 | 14.60
Output  | 66.544     | 66.554     | 66.574     |   0.1 |  0.11
Modify  | 2114.3     | 2291       | 2542.9     | 218.7 |  3.64
Other   |            | 206.3      |            |       |  0.33

Nlocal:    115.763 ave 128 max 102 min
Histogram: 2 3 7 23 29 40 33 12 7 4
Nghost:    2999.67 ave 3054 max 2957 min
Histogram: 6 14 18 24 39 27 20 7 4 1
Neighs:    26825.8 ave 31615 max 22580 min
Histogram: 1 12 18 30 33 30 16 12 6 2

Total # of neighbors = 4292136
Ave neighs/atom = 231.732
Neighbor list builds = 557699
Dangerous builds = 0

# Final Commands
variable        final_energy equal etotal
print           "final_energy: ${'final_energy'}"
ERROR on proc 0: Substitution for illegal variable 'final_energy' (../input.cpp:553)
Last command: final_energy: ${'final_energy'
