********************************************************************************
*                       GENERAL UTILITY LATTICE PROGRAM                        *
*                                 Julian Gale                                  *
*                       Curtin Institute for Computation                       *
*                    School of Molecular and Life Sciences                     *
*                    Curtin University, Western Australia                      *
********************************************************************************
* Version = 5.2.0 * Last modified =  10th September 2020                       *
********************************************************************************
*  fit          - perform fitting run                                          *
*  optimise     - perform optimisation run after fitting                       *
*  conp         - constant pressure calculation                                *
*  nosymmetry   - turn off symmetry after initial structure generation         *
*  simultaneous - relax shell positions and radii during fitting               *
********************************************************************************

  Job Started  at 13:02.55 13th August     2021                               

  Number of CPUs =     1


  Total number of configurations input =      1

********************************************************************************
*  Input for Configuration =   1                                               *
********************************************************************************

  Formula = Sc2Cl6                                                      

  Number of irreducible atoms/shells =      14


  Total number atoms/shells =      14

  Dimensionality = 3               :  Bulk   



  Cartesian lattice vectors (Angstroms) :

        3.246588    1.874418    6.441540
       -3.246588    1.874418    6.441540
        0.000000   -3.748837    6.441540

  Cell parameters (Angstroms/Degrees):

  a =       7.4530    alpha =  51.6480
  b =       7.4530    beta  =  51.6480
  c =       7.4530    gamma =  51.6480

  Initial cell volume =         235.198534 Angs**3

  Temperature of configuration =   0.00     K 

  Pressure of configuration =         0.000 GPa 

  Fractional coordinates of asymmetric unit :

--------------------------------------------------------------------------------
   No.  Atomic       x           y          z         Charge      Occupancy
        Label      (Frac)      (Frac)     (Frac)        (e)         (Frac)  
--------------------------------------------------------------------------------
      1 Sc    c    0.333900    0.333900    0.333900     3.00000    1.000000    
      2 Sc    c    0.666100 *  0.666100 *  0.666100 *   3.00000    1.000000    
      3 Cl    c    0.073700 *  0.443900 *  0.705300 *   1.48500    1.000000    
      4 Cl    c    0.705300 *  0.073700 *  0.443900 *   1.48500    1.000000    
      5 Cl    c    0.443900 *  0.705300 *  0.073700 *   1.48500    1.000000    
      6 Cl    c    0.926300 *  0.556100 *  0.294700 *   1.48500    1.000000    
      7 Cl    c    0.294700 *  0.926300 *  0.556100 *   1.48500    1.000000    
      8 Cl    c    0.556100 *  0.294700 *  0.926300 *   1.48500    1.000000    
      9 Cl    s    0.073700 *  0.443900 *  0.705300 *  -2.48500    1.000000    
     10 Cl    s    0.705300 *  0.073700 *  0.443900 *  -2.48500    1.000000    
     11 Cl    s    0.443900 *  0.705300 *  0.073700 *  -2.48500    1.000000    
     12 Cl    s    0.926300 *  0.556100 *  0.294700 *  -2.48500    1.000000    
     13 Cl    s    0.294700 *  0.926300 *  0.556100 *  -2.48500    1.000000    
     14 Cl    s    0.556100 *  0.294700 *  0.926300 *  -2.48500    1.000000    
--------------------------------------------------------------------------------



********************************************************************************
*  General input information                                                   *
********************************************************************************

  Species output for all configurations : 

--------------------------------------------------------------------------------
  Species    Type    Atomic    Atomic    Charge       Radii (Angs)     Library
                     Number     Mass       (e)     Cova   Ionic  VDW   Symbol
--------------------------------------------------------------------------------
    Sc       Core       21      44.96   3.000000   1.440  0.000  2.150          
    Cl       Core       17      35.45   1.485000   0.990  0.000  1.650          
    Cl       Shell      17       0.00  -2.485000   0.990  0.000  1.650          
--------------------------------------------------------------------------------


  Lattice summation method               =    Ewald          (3-D)
                                         =    Parry          (2-D)
                                         =    Saunders et al (1-D)
  Accuracy factor for lattice sums       =   12.000


  Analytic derivatives to be used

  Time limit = Infinity

  Maximum range for interatomic potentials =    100000.000000 Angstroms

  General interatomic potentials :

--------------------------------------------------------------------------------
Atom  Types   Potential      Parameter       Value         Units   Cutoffs(Ang)
  1     2                                                            Min /  Max 
--------------------------------------------------------------------------------
Cl   c Cl   s Spring (c-s)  Spring k 2       29.380000    eV*Ang^-2 0.000  0.800
                            Spring k 4       0.0000000    eV*Ang^-4 
--------------------------------------------------------------------------------
Sc   c Cl   s Buckingham    Buckingham A     2704.5500    eV        0.000 12.000
                            Buckingham rho  0.35280000    Ang       
                            Buckingham C     0.0000000    eV*Ang^6  
--------------------------------------------------------------------------------
Cl   s Cl   s Buckingham    Buckingham A     1227.2000    eV        0.000 12.000
                            Buckingham rho  0.32100000    Ang       
                            Buckingham C     14.530000    eV*Ang^6  
--------------------------------------------------------------------------------


  Number of variables   =   20
  Number of observables =   45

--------------------------------------------------------------------------------
   Observable no.  Type           Observable    Weight       Reference  Confign 
--------------------------------------------------------------------------------
          1        Derivative        0.000000        1.0000    2 x         1
          2        Derivative        0.000000        1.0000    2 y         1
          3        Derivative        0.000000        1.0000    2 z         1
          4        Derivative        0.000000        1.0000    3 x         1
          5        Derivative        0.000000        1.0000    3 y         1
          6        Derivative        0.000000        1.0000    3 z         1
          7        Derivative        0.000000        1.0000    4 x         1
          8        Derivative        0.000000        1.0000    4 y         1
          9        Derivative        0.000000        1.0000    4 z         1
         10        Derivative        0.000000        1.0000    5 x         1
         11        Derivative        0.000000        1.0000    5 y         1
         12        Derivative        0.000000        1.0000    5 z         1
         13        Derivative        0.000000        1.0000    6 x         1
         14        Derivative        0.000000        1.0000    6 y         1
         15        Derivative        0.000000        1.0000    6 z         1
         16        Derivative        0.000000        1.0000    7 x         1
         17        Derivative        0.000000        1.0000    7 y         1
         18        Derivative        0.000000        1.0000    7 z         1
         19        Derivative        0.000000        1.0000    8 x         1
         20        Derivative        0.000000        1.0000    8 y         1
         21        Derivative        0.000000        1.0000    8 z         1
         22        Derivative        0.000000        1.0000    9 x         1
         23        Derivative        0.000000        1.0000    9 y         1
         24        Derivative        0.000000        1.0000    9 z         1
         25        Derivative        0.000000        1.0000   10 x         1
         26        Derivative        0.000000        1.0000   10 y         1
         27        Derivative        0.000000        1.0000   10 z         1
         28        Derivative        0.000000        1.0000   11 x         1
         29        Derivative        0.000000        1.0000   11 y         1
         30        Derivative        0.000000        1.0000   11 z         1
         31        Derivative        0.000000        1.0000   12 x         1
         32        Derivative        0.000000        1.0000   12 y         1
         33        Derivative        0.000000        1.0000   12 z         1
         34        Derivative        0.000000        1.0000   13 x         1
         35        Derivative        0.000000        1.0000   13 y         1
         36        Derivative        0.000000        1.0000   13 z         1
         37        Derivative        0.000000        1.0000   14 x         1
         38        Derivative        0.000000        1.0000   14 y         1
         39        Derivative        0.000000        1.0000   14 z         1
         40        Derivative        0.000000        1.0000    a           1
         41        Derivative        0.000000        1.0000    b           1
         42        Derivative        0.000000        1.0000    c           1
         43        Derivative        0.000000        1.0000    alpha       1
         44        Derivative        0.000000        1.0000    beta        1
         45        Derivative        0.000000        1.0000    gamma       1
--------------------------------------------------------------------------------

  Variables :

--------------------------------------------------------------------------------
     Parameter No.       Parameter Value          Parameter Type  Species
--------------------------------------------------------------------------------
             1               2704.550000          Buckingham A   
             2                  0.352800          Buckingham rho 
             3                  0.073700          Shell position    1   9 x
             4                  0.443900          Shell position    1   9 y
             5                  0.705300          Shell position    1   9 z
             6                  0.705300          Shell position    1  10 x
             7                  0.073700          Shell position    1  10 y
             8                  0.443900          Shell position    1  10 z
             9                  0.443900          Shell position    1  11 x
            10                  0.705300          Shell position    1  11 y
            11                  0.073700          Shell position    1  11 z
            12                  0.926300          Shell position    1  12 x
            13                  0.556100          Shell position    1  12 y
            14                  0.294700          Shell position    1  12 z
            15                  0.294700          Shell position    1  13 x
            16                  0.926300          Shell position    1  13 y
            17                  0.556100          Shell position    1  13 z
            18                  0.556100          Shell position    1  14 x
            19                  0.294700          Shell position    1  14 y
            20                  0.926300          Shell position    1  14 z
--------------------------------------------------------------------------------

  Simultaneous optimisation will be performed during fitting
  First derivatives of residuals to be used in fitting

  Maximum no. of cycles   =       5000
  Maximum step size       =  1000.0000
  Tolerance on parameters =  0.0000100
  Tolerance on function   =  0.0000100
  Tolerance on gradient   =  0.0001000
  Differencing interval   =  0.0001000

  Start of fitting :

  Cycle:      0  Sum sqs:  104758.247647  Gnorm:3027439.623381  CPU:    0.255
  ** Hessian calculated **
  Cycle:      1  Sum sqs:   25267.167028  Gnorm: 371275.429910  CPU:    0.496
  Cycle:      2  Sum sqs:    4930.750291  Gnorm: 102885.405797  CPU:    0.759
  Cycle:      3  Sum sqs:    2002.137814  Gnorm: 308450.762768  CPU:    1.009
  Cycle:      4  Sum sqs:     253.896102  Gnorm:  28628.376464  CPU:    1.274
  Cycle:      5  Sum sqs:     124.741404  Gnorm:  29890.360972  CPU:    1.534
  Cycle:      6  Sum sqs:      46.539944  Gnorm:  11756.826779  CPU:    1.789
  Cycle:      7  Sum sqs:      44.007630  Gnorm:   3309.879129  CPU:    2.051
  Cycle:      8  Sum sqs:      43.637097  Gnorm:   2755.037847  CPU:    2.341
  Cycle:      9  Sum sqs:      41.727180  Gnorm:   1566.579189  CPU:    2.686
  Cycle:     10  Sum sqs:      41.573377  Gnorm:    102.892371  CPU:    3.076
  Cycle:     11  Sum sqs:      41.572791  Gnorm:    100.092595  CPU:    3.367
  Cycle:     12  Sum sqs:      41.571135  Gnorm:    198.068355  CPU:    3.627
  Cycle:     13  Sum sqs:      41.568581  Gnorm:    151.827885  CPU:    3.902
  Cycle:     14  Sum sqs:      41.567786  Gnorm:     13.629355  CPU:    4.150
  Cycle:     15  Sum sqs:      41.567427  Gnorm:     56.178421  CPU:    4.428
  Cycle:     16  Sum sqs:      41.567328  Gnorm:     29.764633  CPU:    4.694
  Cycle:     17  Sum sqs:      41.531141  Gnorm:    296.338072  CPU:    4.983
  Cycle:     18  Sum sqs:      41.517529  Gnorm:    637.042902  CPU:    5.301
  Cycle:     19  Sum sqs:      41.502117  Gnorm:   1086.249060  CPU:    5.657
  Cycle:     20  Sum sqs:      41.451435  Gnorm:   1427.835193  CPU:    5.913
  ** Hessian calculated **
  Cycle:     21  Sum sqs:      41.424135  Gnorm:    302.535021  CPU:    6.444
  Cycle:     22  Sum sqs:      41.417133  Gnorm:    151.753150  CPU:    6.708
  Cycle:     23  Sum sqs:      41.416197  Gnorm:     58.493887  CPU:    6.988
  Cycle:     24  Sum sqs:      41.415815  Gnorm:    101.864711  CPU:    7.231
  Cycle:     25  Sum sqs:      41.414612  Gnorm:     18.314501  CPU:    7.512
  Cycle:     26  Sum sqs:      41.414375  Gnorm:     72.777095  CPU:    7.764
  Cycle:     27  Sum sqs:      41.413057  Gnorm:     46.412525  CPU:    8.026
  Cycle:     28  Sum sqs:      41.412759  Gnorm:     92.813274  CPU:    8.298
  Cycle:     29  Sum sqs:      41.412188  Gnorm:    197.612088  CPU:    8.562
  Cycle:     30  Sum sqs:      41.384913  Gnorm:    446.704390  CPU:    8.822
  Cycle:     31  Sum sqs:      41.373411  Gnorm:    651.046034  CPU:    9.092
  Cycle:     32  Sum sqs:      41.359818  Gnorm:    347.830113  CPU:    9.395
  Cycle:     33  Sum sqs:      41.353836  Gnorm:    314.198802  CPU:    9.669
  Cycle:     34  Sum sqs:      41.349412  Gnorm:    286.372375  CPU:    9.928
  Cycle:     35  Sum sqs:      41.344642  Gnorm:    261.854772  CPU:   10.238
  Cycle:     36  Sum sqs:      41.334545  Gnorm:    247.425594  CPU:   10.524
  Cycle:     37  Sum sqs:      41.320881  Gnorm:    596.725130  CPU:   10.795
  Cycle:     38  Sum sqs:      41.305662  Gnorm:   1127.417349  CPU:   11.039
  Cycle:     39  Sum sqs:      41.290316  Gnorm:    574.802392  CPU:   11.319
  Cycle:     40  Sum sqs:      41.229940  Gnorm:    957.522868  CPU:   11.570
  ** Hessian calculated **
  Cycle:     41  Sum sqs:      41.216071  Gnorm:    604.959251  CPU:   12.066
  Cycle:     42  Sum sqs:      41.207878  Gnorm:    120.106890  CPU:   12.334
  Cycle:     43  Sum sqs:      41.205266  Gnorm:    134.197018  CPU:   12.579
  Cycle:     44  Sum sqs:      41.202533  Gnorm:    257.637625  CPU:   12.847
  Cycle:     45  Sum sqs:      41.195668  Gnorm:     49.294204  CPU:   13.118
  Cycle:     46  Sum sqs:      41.194858  Gnorm:    100.860211  CPU:   13.373
  Cycle:     47  Sum sqs:      41.193289  Gnorm:     15.460670  CPU:   13.616
  Cycle:     48  Sum sqs:      41.192939  Gnorm:    145.732879  CPU:   13.910
  Cycle:     49  Sum sqs:      41.191953  Gnorm:    265.209452  CPU:   14.166
  Cycle:     50  Sum sqs:      41.187949  Gnorm:    107.829114  CPU:   14.423
  Cycle:     51  Sum sqs:      41.187083  Gnorm:    120.762611  CPU:   14.658
  Cycle:     52  Sum sqs:      41.149208  Gnorm:    202.719852  CPU:   14.925
  Cycle:     53  Sum sqs:      41.126017  Gnorm:    872.064523  CPU:   15.175
  Cycle:     54  Sum sqs:      41.102858  Gnorm:   1304.773350  CPU:   15.541
  Cycle:     55  Sum sqs:      41.083945  Gnorm:    431.295768  CPU:   15.799
  Cycle:     56  Sum sqs:      41.067058  Gnorm:    422.497452  CPU:   16.088
  Cycle:     57  Sum sqs:      41.044910  Gnorm:    550.735604  CPU:   16.366
  Cycle:     58  Sum sqs:      41.012193  Gnorm:    899.844108  CPU:   16.686
  Cycle:     59  Sum sqs:      40.972769  Gnorm:   1234.867174  CPU:   16.941
  Cycle:     60  Sum sqs:      40.941533  Gnorm:    295.278210  CPU:   17.193
  ** Hessian calculated **
  Cycle:     61  Sum sqs:      40.938216  Gnorm:    419.164498  CPU:   17.692
  Cycle:     62  Sum sqs:      40.935653  Gnorm:    158.080751  CPU:   17.958
  Cycle:     63  Sum sqs:      40.931366  Gnorm:    181.603703  CPU:   18.234
  Cycle:     64  Sum sqs:      40.925839  Gnorm:    315.225583  CPU:   18.521
  Cycle:     65  Sum sqs:      40.916491  Gnorm:     36.633939  CPU:   18.765
  Cycle:     66  Sum sqs:      40.916242  Gnorm:     76.103884  CPU:   19.028
  Cycle:     67  Sum sqs:      40.914953  Gnorm:     38.407067  CPU:   19.284
  Cycle:     68  Sum sqs:      40.914469  Gnorm:    139.737356  CPU:   19.550
  Cycle:     69  Sum sqs:      40.912407  Gnorm:    236.137130  CPU:   19.805
  Cycle:     70  Sum sqs:      40.910198  Gnorm:     63.120830  CPU:   20.078
  Cycle:     71  Sum sqs:      40.903622  Gnorm:    383.320508  CPU:   20.329
  Cycle:     72  Sum sqs:      40.885824  Gnorm:    250.350077  CPU:   20.576
  Cycle:     73  Sum sqs:      40.874472  Gnorm:    698.566126  CPU:   20.848
  Cycle:     74  Sum sqs:      40.839669  Gnorm:    496.901338  CPU:   21.116
  Cycle:     75  Sum sqs:      40.824629  Gnorm:    431.555026  CPU:   21.379
  Cycle:     76  Sum sqs:      40.807859  Gnorm:   1853.480291  CPU:   21.724
  Cycle:     77  Sum sqs:      40.751701  Gnorm:    673.988586  CPU:   21.978
  Cycle:     78  Sum sqs:      40.718034  Gnorm:    848.049510  CPU:   22.248
  Cycle:     79  Sum sqs:      40.681224  Gnorm:   1256.301999  CPU:   22.554
  Cycle:     80  Sum sqs:      40.610590  Gnorm:   1008.073016  CPU:   22.798
  ** Hessian calculated **
  Cycle:     81  Sum sqs:      40.589322  Gnorm:    661.301526  CPU:   23.250
  Cycle:     82  Sum sqs:      40.572343  Gnorm:    194.521014  CPU:   23.488
  Cycle:     83  Sum sqs:      40.569147  Gnorm:     54.897839  CPU:   23.717
  Cycle:     84  Sum sqs:      40.568854  Gnorm:    101.041778  CPU:   23.987
  Cycle:     85  Sum sqs:      40.565872  Gnorm:     59.520773  CPU:   24.273
  Cycle:     86  Sum sqs:      40.565605  Gnorm:     47.184112  CPU:   24.573
  Cycle:     87  Sum sqs:      40.562967  Gnorm:     73.397235  CPU:   24.838
  Cycle:     88  Sum sqs:      40.562605  Gnorm:    107.664788  CPU:   25.108
  Cycle:     89  Sum sqs:      40.562138  Gnorm:    187.822466  CPU:   25.395
  Cycle:     90  Sum sqs:      40.540620  Gnorm:    228.347088  CPU:   25.645
  Cycle:     91  Sum sqs:      40.535410  Gnorm:    377.032931  CPU:   25.900
  Cycle:     92  Sum sqs:      40.504546  Gnorm:    772.699581  CPU:   26.138
  Cycle:     93  Sum sqs:      40.457925  Gnorm:   1213.545307  CPU:   26.389
  Cycle:     94  Sum sqs:      40.331520  Gnorm:   1373.728323  CPU:   26.629
  Cycle:     95  Sum sqs:      40.311178  Gnorm:    388.779539  CPU:   26.910
  Cycle:     96  Sum sqs:      40.287949  Gnorm:    928.350481  CPU:   27.157
  Cycle:     97  Sum sqs:      40.220656  Gnorm:   1282.015786  CPU:   27.398
  Cycle:     98  Sum sqs:      40.098677  Gnorm:   1161.229313  CPU:   27.647
  Cycle:     99  Sum sqs:      40.061538  Gnorm:    553.206961  CPU:   27.887
  Cycle:    100  Sum sqs:      39.985893  Gnorm:    433.108056  CPU:   28.136
  ** Hessian calculated **
  Cycle:    101  Sum sqs:      39.983513  Gnorm:     98.830880  CPU:   28.706
  Cycle:    102  Sum sqs:      39.981931  Gnorm:    119.813559  CPU:   28.977
  Cycle:    103  Sum sqs:      39.979942  Gnorm:    138.290062  CPU:   29.271
  Cycle:    104  Sum sqs:      39.977006  Gnorm:    194.096911  CPU:   29.568
  Cycle:    105  Sum sqs:      39.975362  Gnorm:     21.805591  CPU:   29.869
  Cycle:    106  Sum sqs:      39.973102  Gnorm:    228.363358  CPU:   30.149
  Cycle:    107  Sum sqs:      39.956185  Gnorm:    121.523998  CPU:   30.492
  Cycle:    108  Sum sqs:      39.953505  Gnorm:    218.316065  CPU:   30.798
  Cycle:    109  Sum sqs:      39.942769  Gnorm:    480.325568  CPU:   31.099
  Cycle:    110  Sum sqs:      39.909201  Gnorm:    376.888214  CPU:   31.416
  Cycle:    111  Sum sqs:      39.875100  Gnorm:    605.310440  CPU:   31.736
  Cycle:    112  Sum sqs:      39.857097  Gnorm:   1424.553378  CPU:   32.040
  Cycle:    113  Sum sqs:      39.835986  Gnorm:    612.182396  CPU:   32.350
  Cycle:    114  Sum sqs:      39.802044  Gnorm:   1307.111117  CPU:   32.585
  Cycle:    115  Sum sqs:      39.595687  Gnorm:   2145.940006  CPU:   32.848
  Cycle:    116  Sum sqs:      39.543747  Gnorm:    750.653204  CPU:   33.171
  Cycle:    117  Sum sqs:      39.470855  Gnorm:    871.526842  CPU:   33.414
  Cycle:    118  Sum sqs:      39.447105  Gnorm:   1221.022136  CPU:   33.649
  Cycle:    119  Sum sqs:      39.407176  Gnorm:    704.992084  CPU:   33.886
  Cycle:    120  Sum sqs:      39.360308  Gnorm:    547.083947  CPU:   34.144
  ** Hessian calculated **
  Cycle:    121  Sum sqs:      39.347142  Gnorm:    270.570041  CPU:   34.591
  Cycle:    122  Sum sqs:      39.342011  Gnorm:    505.246304  CPU:   34.827
  Cycle:    123  Sum sqs:      39.332163  Gnorm:    304.662555  CPU:   35.064
  Cycle:    124  Sum sqs:      39.316754  Gnorm:    317.264201  CPU:   35.300
  Cycle:    125  Sum sqs:      39.304356  Gnorm:    102.443042  CPU:   35.533
  Cycle:    126  Sum sqs:      39.303746  Gnorm:     69.799893  CPU:   35.776
  Cycle:    127  Sum sqs:      39.295896  Gnorm:     72.768989  CPU:   36.011
  Cycle:    128  Sum sqs:      39.294592  Gnorm:    216.820410  CPU:   36.246
  Cycle:    129  Sum sqs:      39.287459  Gnorm:    290.283429  CPU:   36.479
  Cycle:    130  Sum sqs:      39.285346  Gnorm:    127.794168  CPU:   36.713
  Cycle:    131  Sum sqs:      39.231917  Gnorm:   1079.815533  CPU:   36.946
  Cycle:    132  Sum sqs:      39.183869  Gnorm:   2108.803929  CPU:   37.175
  Cycle:    133  Sum sqs:      39.107189  Gnorm:    723.965033  CPU:   37.407
  Cycle:    134  Sum sqs:      39.019972  Gnorm:   1003.085247  CPU:   37.649
  Cycle:    135  Sum sqs:      38.952215  Gnorm:   1716.698753  CPU:   37.888
  Cycle:    136  Sum sqs:      38.722854  Gnorm:   2097.337584  CPU:   38.123
  Cycle:    137  Sum sqs:      38.616046  Gnorm:   1513.661006  CPU:   38.366
  Cycle:    138  Sum sqs:      38.406218  Gnorm:    396.308922  CPU:   38.617
  Cycle:    139  Sum sqs:      38.315079  Gnorm:   1746.873075  CPU:   38.881
  Cycle:    140  Sum sqs:      38.201409  Gnorm:   2236.256350  CPU:   39.116
  ** Hessian calculated **
  Cycle:    141  Sum sqs:      38.132175  Gnorm:    802.149602  CPU:   39.569
  Cycle:    142  Sum sqs:      38.104724  Gnorm:    317.795103  CPU:   39.806
  Cycle:    143  Sum sqs:      38.095880  Gnorm:    201.558006  CPU:   40.038
  Cycle:    144  Sum sqs:      38.086276  Gnorm:    478.605310  CPU:   40.276
  Cycle:    145  Sum sqs:      38.064320  Gnorm:    129.827132  CPU:   40.512
  Cycle:    146  Sum sqs:      38.063324  Gnorm:     84.412325  CPU:   40.750
  Cycle:    147  Sum sqs:      38.048567  Gnorm:    165.182956  CPU:   41.024
  Cycle:    148  Sum sqs:      38.046556  Gnorm:    250.932036  CPU:   41.270
  Cycle:    149  Sum sqs:      38.042049  Gnorm:    537.920340  CPU:   41.528
  Cycle:    150  Sum sqs:      38.015055  Gnorm:    186.839420  CPU:   41.775
  Cycle:    151  Sum sqs:      37.898314  Gnorm:    837.723602  CPU:   42.039
  Cycle:    152  Sum sqs:      37.819977  Gnorm:    872.714996  CPU:   42.301
  Cycle:    153  Sum sqs:      37.732889  Gnorm:   3463.712233  CPU:   42.543
  Cycle:    154  Sum sqs:      37.542213  Gnorm:   1296.643422  CPU:   42.817
  Cycle:    155  Sum sqs:      37.483484  Gnorm:    894.066099  CPU:   43.064
  Cycle:    156  Sum sqs:      37.314426  Gnorm:    958.198733  CPU:   43.316
  Cycle:    157  Sum sqs:      37.140611  Gnorm:   1921.678006  CPU:   43.558
  Cycle:    158  Sum sqs:      36.914137  Gnorm:   3007.355832  CPU:   43.800
  Cycle:    159  Sum sqs:      36.730325  Gnorm:    676.557419  CPU:   44.038
  Cycle:    160  Sum sqs:      36.583511  Gnorm:   1662.007469  CPU:   44.284
  ** Hessian calculated **
  Cycle:    161  Sum sqs:      36.544601  Gnorm:    486.842284  CPU:   44.894
  Cycle:    162  Sum sqs:      36.516675  Gnorm:    463.475619  CPU:   45.215
  Cycle:    163  Sum sqs:      36.493850  Gnorm:    352.258954  CPU:   45.440
  Cycle:    164  Sum sqs:      36.446502  Gnorm:    319.337467  CPU:   45.695
  Cycle:    165  Sum sqs:      36.443761  Gnorm:     50.774679  CPU:   45.926
  Cycle:    166  Sum sqs:      36.420184  Gnorm:    200.871861  CPU:   46.225
  Cycle:    167  Sum sqs:      36.415586  Gnorm:    190.953722  CPU:   46.442
  Cycle:    168  Sum sqs:      36.388770  Gnorm:   1305.437449  CPU:   46.690
  Cycle:    169  Sum sqs:      36.241847  Gnorm:    980.434931  CPU:   46.932
  Cycle:    170  Sum sqs:      36.197724  Gnorm:    743.471629  CPU:   47.166
  Cycle:    171  Sum sqs:      36.110710  Gnorm:   1097.154156  CPU:   47.384
  Cycle:    172  Sum sqs:      36.025303  Gnorm:   1943.720226  CPU:   47.617
  Cycle:    173  Sum sqs:      35.823197  Gnorm:   2116.313450  CPU:   47.852
  Cycle:    174  Sum sqs:      35.676642  Gnorm:   1976.910764  CPU:   48.115
  Cycle:    175  Sum sqs:      35.492295  Gnorm:   2122.012380  CPU:   48.383
  Cycle:    176  Sum sqs:      35.332408  Gnorm:   5482.670620  CPU:   48.604
  Cycle:    177  Sum sqs:      35.055869  Gnorm:   2474.163444  CPU:   48.859
  Cycle:    178  Sum sqs:      34.955843  Gnorm:   1529.775033  CPU:   49.077
  Cycle:    179  Sum sqs:      34.796216  Gnorm:   1050.921896  CPU:   49.307
  Cycle:    180  Sum sqs:      34.640491  Gnorm:   2779.388496  CPU:   49.533
  ** Hessian calculated **
  Cycle:    181  Sum sqs:      34.546680  Gnorm:    846.848435  CPU:   49.946
  Cycle:    182  Sum sqs:      34.488119  Gnorm:   1059.941007  CPU:   50.168
  Cycle:    183  Sum sqs:      34.435491  Gnorm:    695.174412  CPU:   50.384
  Cycle:    184  Sum sqs:      34.260255  Gnorm:    142.999454  CPU:   50.602
  Cycle:    185  Sum sqs:      34.247671  Gnorm:    504.345934  CPU:   50.817
  Cycle:    186  Sum sqs:      34.223579  Gnorm:    197.961301  CPU:   51.034
  Cycle:    187  Sum sqs:      34.218994  Gnorm:    385.760073  CPU:   51.255
  Cycle:    188  Sum sqs:      34.211614  Gnorm:    753.003362  CPU:   51.470
  Cycle:    189  Sum sqs:      33.999643  Gnorm:   1900.425462  CPU:   51.691
  Cycle:    190  Sum sqs:      33.881686  Gnorm:    849.493427  CPU:   51.907
  Cycle:    191  Sum sqs:      33.569735  Gnorm:   2201.700279  CPU:   52.124
  Cycle:    192  Sum sqs:      33.317991  Gnorm:   2386.459659  CPU:   52.340
  Cycle:    193  Sum sqs:      32.872468  Gnorm:   2332.144399  CPU:   52.575
  Cycle:    194  Sum sqs:      32.704271  Gnorm:   3179.828577  CPU:   52.789
  Cycle:    195  Sum sqs:      32.364532  Gnorm:   4546.276504  CPU:   53.006
  Cycle:    196  Sum sqs:      32.216351  Gnorm:   2556.435767  CPU:   53.221
  Cycle:    197  Sum sqs:      32.005471  Gnorm:   2525.013130  CPU:   53.432
  Cycle:    198  Sum sqs:      31.949311  Gnorm:   3449.176819  CPU:   53.648
  Cycle:    199  Sum sqs:      31.554385  Gnorm:   2606.247520  CPU:   53.864
  Cycle:    200  Sum sqs:      31.477564  Gnorm:    960.307237  CPU:   54.081
  ** Hessian calculated **
  Cycle:    201  Sum sqs:      31.463781  Gnorm:    790.910548  CPU:   54.498
  Cycle:    202  Sum sqs:      31.436044  Gnorm:    485.099623  CPU:   54.717
  Cycle:    203  Sum sqs:      31.352145  Gnorm:    939.796367  CPU:   54.938
  Cycle:    204  Sum sqs:      31.309662  Gnorm:    382.159290  CPU:   55.148
  Cycle:    205  Sum sqs:      31.293479  Gnorm:    141.699377  CPU:   55.359
  Cycle:    206  Sum sqs:      31.288695  Gnorm:    247.984546  CPU:   55.574
  Cycle:    207  Sum sqs:      31.184215  Gnorm:    295.517738  CPU:   55.789
  Cycle:    208  Sum sqs:      31.158903  Gnorm:    942.754789  CPU:   56.004
  Cycle:    209  Sum sqs:      30.526384  Gnorm:    987.408200  CPU:   56.230
  Cycle:    210  Sum sqs:      30.172110  Gnorm:   3823.350499  CPU:   56.451
  Cycle:    211  Sum sqs:      29.878500  Gnorm:   5907.407436  CPU:   56.666
  Cycle:    212  Sum sqs:      29.597055  Gnorm:   2031.986478  CPU:   56.880
  Cycle:    213  Sum sqs:      28.692476  Gnorm:   3082.900225  CPU:   57.100
  Cycle:    214  Sum sqs:      27.586997  Gnorm:   4824.032810  CPU:   57.318
  Cycle:    215  Sum sqs:      27.093369  Gnorm:   2584.860331  CPU:   57.533
  Cycle:    216  Sum sqs:      25.917916  Gnorm:   1848.351390  CPU:   57.761
  Cycle:    217  Sum sqs:      25.384892  Gnorm:   4721.593994  CPU:   57.985
  Cycle:    218  Sum sqs:      24.699158  Gnorm:   3290.860786  CPU:   58.199
  Cycle:    219  Sum sqs:      24.121585  Gnorm:   5840.279500  CPU:   58.431
  Cycle:    220  Sum sqs:      23.272885  Gnorm:   1739.613746  CPU:   58.642
  ** Hessian calculated **
  Cycle:    221  Sum sqs:      23.168208  Gnorm:   2084.370842  CPU:   59.076
  Cycle:    222  Sum sqs:      23.105427  Gnorm:    804.931335  CPU:   59.288
  Cycle:    223  Sum sqs:      22.780909  Gnorm:   1780.390798  CPU:   59.504
  Cycle:    224  Sum sqs:      22.632185  Gnorm:    609.102664  CPU:   59.715
  Cycle:    225  Sum sqs:      22.575689  Gnorm:    395.158675  CPU:   59.933
  Cycle:    226  Sum sqs:      22.541703  Gnorm:    757.066159  CPU:   60.168
  Cycle:    227  Sum sqs:      22.384793  Gnorm:    376.754798  CPU:   60.386
  Cycle:    228  Sum sqs:      22.357234  Gnorm:   1000.402576  CPU:   60.602
  Cycle:    229  Sum sqs:      20.715949  Gnorm:   5194.614095  CPU:   60.822
  Cycle:    230  Sum sqs:      19.988684  Gnorm:   4986.311159  CPU:   61.036
  Cycle:    231  Sum sqs:      19.803835  Gnorm:   1635.798914  CPU:   61.251
  Cycle:    232  Sum sqs:      18.698778  Gnorm:   2872.506626  CPU:   61.472
  Cycle:    233  Sum sqs:      18.231069  Gnorm:   4379.451026  CPU:   61.686
  Cycle:    234  Sum sqs:      16.846582  Gnorm:   7348.238105  CPU:   61.901
  Cycle:    235  Sum sqs:      16.251526  Gnorm:   1843.129148  CPU:   62.116
  Cycle:    236  Sum sqs:      14.721488  Gnorm:   4195.227800  CPU:   62.335
  Cycle:    237  Sum sqs:      14.331505  Gnorm:   6233.801637  CPU:   62.545
  Cycle:    238  Sum sqs:      13.991567  Gnorm:   1262.257855  CPU:   62.761
  Cycle:    239  Sum sqs:      13.643717  Gnorm:   2828.228610  CPU:   62.978
  Cycle:    240  Sum sqs:      13.223769  Gnorm:   2127.287761  CPU:   63.188
  ** Hessian calculated **
  Cycle:    241  Sum sqs:      13.143966  Gnorm:   1447.238279  CPU:   63.593
  Cycle:    242  Sum sqs:      13.076592  Gnorm:   1057.559102  CPU:   63.809
  Cycle:    243  Sum sqs:      12.897661  Gnorm:   1491.839452  CPU:   64.026
  Cycle:    244  Sum sqs:      12.762818  Gnorm:   1336.573285  CPU:   64.240
  Cycle:    245  Sum sqs:      12.671550  Gnorm:    248.030652  CPU:   64.454
  Cycle:    246  Sum sqs:      12.648057  Gnorm:    668.754280  CPU:   64.668
  Cycle:    247  Sum sqs:      12.593840  Gnorm:    260.947735  CPU:   64.888
  Cycle:    248  Sum sqs:      12.558924  Gnorm:   1151.572722  CPU:   65.102
  Cycle:    249  Sum sqs:      12.334105  Gnorm:   2735.420640  CPU:   65.318
  Cycle:    250  Sum sqs:      12.177534  Gnorm:    692.897833  CPU:   65.529
  Cycle:    251  Sum sqs:      12.093382  Gnorm:   1202.719831  CPU:   65.745
  Cycle:    252  Sum sqs:      11.934176  Gnorm:   1698.648394  CPU:   65.956
  Cycle:    253  Sum sqs:      11.816386  Gnorm:   1041.457562  CPU:   66.179
  Cycle:    254  Sum sqs:      11.704022  Gnorm:    453.217199  CPU:   66.390
  Cycle:    255  Sum sqs:      11.678126  Gnorm:   1034.139874  CPU:   66.602
  Cycle:    256  Sum sqs:      11.649039  Gnorm:    425.557729  CPU:   66.812
  Cycle:    257  Sum sqs:      11.616752  Gnorm:    503.404261  CPU:   67.029
  Cycle:    258  Sum sqs:      11.602608  Gnorm:    573.725627  CPU:   67.245
  Cycle:    259  Sum sqs:      11.584824  Gnorm:    285.522645  CPU:   67.461
  Cycle:    260  Sum sqs:      11.577857  Gnorm:    119.563323  CPU:   67.672
  ** Hessian calculated **
  Cycle:    261  Sum sqs:      11.577003  Gnorm:    189.709459  CPU:   68.084
  Cycle:    262  Sum sqs:      11.575698  Gnorm:    192.260218  CPU:   68.304
  Cycle:    263  Sum sqs:      11.573266  Gnorm:    225.898756  CPU:   68.521
  Cycle:    264  Sum sqs:      11.571219  Gnorm:     89.918892  CPU:   68.753
  Cycle:    265  Sum sqs:      11.570838  Gnorm:     50.473051  CPU:   68.970
  Cycle:    266  Sum sqs:      11.569482  Gnorm:     40.439448  CPU:   69.186
  Cycle:    267  Sum sqs:      11.569388  Gnorm:     17.769627  CPU:   69.402
  Cycle:    268  Sum sqs:      11.569348  Gnorm:     33.278561  CPU:   69.614
  Cycle:    269  Sum sqs:      11.569190  Gnorm:     10.744115  CPU:   69.834
  Cycle:    270  Sum sqs:      11.569183  Gnorm:      7.387509  CPU:   70.053
  Cycle:    271  Sum sqs:      11.569169  Gnorm:      6.261136  CPU:   70.263
  Cycle:    272  Sum sqs:      11.569167  Gnorm:      1.211966  CPU:   70.473


  **** Fit completed successfully ****


  Final sum of squares =            11.569167

  Final gradient norm  =             1.211966

  Final values of parameters :

--------------------------------------------------------------------------------
 Parameter No.    Parameter        Parameter      Parameter Type  Species
                  Original         Final                                 
--------------------------------------------------------------------------------
         1           2704.550000        86.749295 Buckingham A   
         2              0.352800         0.670989 Buckingham rho 
         3              0.073700         0.063079 Shell position    1   9 x
         4              0.443900         0.453690 Shell position    1   9 y
         5              0.705300         0.672736 Shell position    1   9 z
         6              0.705300         0.672736 Shell position    1  10 x
         7              0.073700         0.063079 Shell position    1  10 y
         8              0.443900         0.453690 Shell position    1  10 z
         9              0.443900         0.453690 Shell position    1  11 x
        10              0.705300         0.672736 Shell position    1  11 y
        11              0.073700         0.063079 Shell position    1  11 z
        12              0.926300         0.936918 Shell position    1  12 x
        13              0.556100         0.546406 Shell position    1  12 y
        14              0.294700         0.327159 Shell position    1  12 z
        15              0.294700         0.327159 Shell position    1  13 x
        16              0.926300         0.936918 Shell position    1  13 y
        17              0.556100         0.546406 Shell position    1  13 z
        18              0.556100         0.546406 Shell position    1  14 x
        19              0.294700         0.327159 Shell position    1  14 y
        20              0.926300         0.936918 Shell position    1  14 z
--------------------------------------------------------------------------------


  Final values of numerical parameter gradients :

--------------------------------------------------------------------------------
     Parameter No.       Parameter Gradient      Parameter Type  Species
--------------------------------------------------------------------------------
             1                 -0.973267          Buckingham A   
             2                  0.063549          Buckingham rho 
             3                 -0.044740          Shell position    1   9 x
             4                 -0.172576          Shell position    1   9 y
             5                  0.372551          Shell position    1   9 z
             6                  0.325290          Shell position    1  10 x
             7                 -0.009972          Shell position    1  10 y
             8                 -0.066633          Shell position    1  10 z
             9                 -0.003007          Shell position    1  11 x
            10                  0.268529          Shell position    1  11 y
            11                 -0.019230          Shell position    1  11 z
            12                 -0.173831          Shell position    1  12 x
            13                  0.152791          Shell position    1  12 y
            14                 -0.115900          Shell position    1  12 z
            15                  0.020011          Shell position    1  13 x
            16                 -0.103453          Shell position    1  13 y
            17                  0.227384          Shell position    1  13 z
            18                  0.159694          Shell position    1  14 x
            19                  0.012074          Shell position    1  14 y
            20                 -0.093314          Shell position    1  14 z
--------------------------------------------------------------------------------


  Final values of residuals :

--------------------------------------------------------------------------------
   Observable no.  Type            Observable   Calculated    Residual  Error(%)
--------------------------------------------------------------------------------
          1        Derivative         0.00000      0.24242      0.05877
          2        Derivative         0.00000      0.24243      0.05877
          3        Derivative         0.00000      0.24238      0.05875
          4        Derivative         0.00000     -0.08427      0.00710
          5        Derivative         0.00000     -0.43095      0.18572
          6        Derivative         0.00000      0.18989      0.03606
          7        Derivative         0.00000      0.18998      0.03609
          8        Derivative         0.00000     -0.08443      0.00713
          9        Derivative         0.00000     -0.43095      0.18572
         10        Derivative         0.00000     -0.43098      0.18575
         11        Derivative         0.00000      0.18998      0.03609
         12        Derivative         0.00000     -0.08440      0.00712
         13        Derivative         0.00000      0.09237      0.00853
         14        Derivative         0.00000      0.38336      0.14697
         15        Derivative         0.00000     -0.12668      0.01605
         16        Derivative         0.00000     -0.12680      0.01608
         17        Derivative         0.00000      0.09243      0.00854
         18        Derivative         0.00000      0.38337      0.14697
         19        Derivative         0.00000      0.38340      0.14700
         20        Derivative         0.00000     -0.12678      0.01607
         21        Derivative         0.00000      0.09241      0.00854
         22        Derivative         0.00000     -0.23241      0.05402
         23        Derivative         0.00000     -0.15201      0.02311
         24        Derivative         0.00000      0.27271      0.07437
         25        Derivative         0.00000      0.27263      0.07433
         26        Derivative         0.00000     -0.23231      0.05397
         27        Derivative         0.00000     -0.15198      0.02310
         28        Derivative         0.00000     -0.15194      0.02308
         29        Derivative         0.00000      0.27261      0.07431
         30        Derivative         0.00000     -0.23234      0.05398
         31        Derivative         0.00000      0.24417      0.05962
         32        Derivative         0.00000      0.22828      0.05211
         33        Derivative         0.00000     -0.32315      0.10443
         34        Derivative         0.00000     -0.32304      0.10435
         35        Derivative         0.00000      0.24413      0.05960
         36        Derivative         0.00000      0.22824      0.05210
         37        Derivative         0.00000      0.22822      0.05208
         38        Derivative         0.00000     -0.32304      0.10436
         39        Derivative         0.00000      0.24415      0.05961
         40        Derivative         0.00000      0.95163      0.90560
         41        Derivative         0.00000      0.95159      0.90553
         42        Derivative         0.00000     -2.69772      7.27771
         43        Derivative         0.00000      0.00001      0.00000
         44        Derivative         0.00000      0.00004      0.00000
         45        Derivative         0.00000     -0.00002      0.00000
--------------------------------------------------------------------------------

  Comparison of initial and final observables :

--------------------------------------------------------------------------------
   Observable no.  Type            Observable   Initial       Final             
--------------------------------------------------------------------------------
          1        Derivative         0.00000     -0.60123      0.24242
          2        Derivative         0.00000     -0.59981      0.24243
          3        Derivative         0.00000     -0.59886      0.24238
          4        Derivative         0.00000    -55.94417     -0.08427
          5        Derivative         0.00000    -43.33282     -0.43095
          6        Derivative         0.00000    -70.01711      0.18989
          7        Derivative         0.00000    -70.02153      0.18998
          8        Derivative         0.00000    -55.94417     -0.08443
          9        Derivative         0.00000    -43.34165     -0.43095
         10        Derivative         0.00000    -43.33475     -0.43098
         11        Derivative         0.00000    -70.02586      0.18998
         12        Derivative         0.00000    -55.94415     -0.08440
         13        Derivative         0.00000     55.94394      0.09237
         14        Derivative         0.00000     43.33315      0.38336
         15        Derivative         0.00000     70.01349     -0.12668
         16        Derivative         0.00000     70.01797     -0.12680
         17        Derivative         0.00000     55.94393      0.09243
         18        Derivative         0.00000     43.32867      0.38337
         19        Derivative         0.00000     43.41789      0.38340
         20        Derivative         0.00000     70.10268     -0.12678
         21        Derivative         0.00000     56.08170      0.09241
         22        Derivative         0.00000     47.26968     -0.23241
         23        Derivative         0.00000     39.41897     -0.15201
         24        Derivative         0.00000     56.11105      0.27271
         25        Derivative         0.00000     56.11869      0.27263
         26        Derivative         0.00000     47.26968     -0.23231
         27        Derivative         0.00000     39.43410     -0.15198
         28        Derivative         0.00000     39.42269     -0.15194
         29        Derivative         0.00000     56.12684      0.27261
         30        Derivative         0.00000     47.27027     -0.23234
         31        Derivative         0.00000    -47.26938      0.24417
         32        Derivative         0.00000    -39.41951      0.22828
         33        Derivative         0.00000    -56.10472     -0.32315
         34        Derivative         0.00000    -56.11253     -0.32304
         35        Derivative         0.00000    -47.26937      0.24413
         36        Derivative         0.00000    -39.41170      0.22824
         37        Derivative         0.00000    -39.52456      0.22822
         38        Derivative         0.00000    -56.22210     -0.32304
         39        Derivative         0.00000    -47.44432      0.24415
         40        Derivative         0.00000    -42.28575      0.95163
         41        Derivative         0.00000    -42.28625      0.95159
         42        Derivative         0.00000    -11.77700     -2.69772
         43        Derivative         0.00000     -0.00240      0.00001
         44        Derivative         0.00000     -0.00309      0.00004
         45        Derivative         0.00000      0.00234     -0.00002
--------------------------------------------------------------------------------

  Maximum range for interatomic potentials =    100000.000000 Angstroms

  General interatomic potentials :

--------------------------------------------------------------------------------
Atom  Types   Potential      Parameter       Value         Units   Cutoffs(Ang)
  1     2                                                            Min /  Max 
--------------------------------------------------------------------------------
Cl   c Cl   s Spring (c-s)  Spring k 2       29.380000    eV*Ang^-2 0.000  0.800
                            Spring k 4       0.0000000    eV*Ang^-4 
--------------------------------------------------------------------------------
Sc   c Cl   s Buckingham    Buckingham A     86.749295    eV        0.000 12.000
                            Buckingham rho  0.67098941    Ang       
                            Buckingham C     0.0000000    eV*Ang^6  
--------------------------------------------------------------------------------
Cl   s Cl   s Buckingham    Buckingham A     1227.2000    eV        0.000 12.000
                            Buckingham rho  0.32100000    Ang       
                            Buckingham C     14.530000    eV*Ang^6  
--------------------------------------------------------------------------------



  Total time to end of fitting =      70.4785 seconds

********************************************************************************
*  Output for configuration   1                                                *
********************************************************************************


  Components of energy : 

--------------------------------------------------------------------------------
  Interatomic potentials     =          39.56807114 eV    
  Monopole - monopole (real) =          78.84502410 eV    
  Monopole - monopole (recip)=        -197.48851659 eV    
  Monopole - monopole (total)=        -118.64349249 eV    
--------------------------------------------------------------------------------
  Total lattice energy       =         -79.07542135 eV    
--------------------------------------------------------------------------------
  Total lattice energy       =           -7629.5694 kJ/(mole unit cells)
--------------------------------------------------------------------------------


  Number of variables =       45

  Maximum number of calculations  =          1000
  Maximum Hessian update interval =            10
  Maximum step size               =   1.000000000
  Maximum parameter tolerance     =   0.000010000
  Maximum function  tolerance     =   0.000010000
  Maximum gradient  tolerance     =   0.001000000
  Maximum gradient  component     =   0.010000000

  Cell parameters to be optimised using strains

  Newton-Raphson optimiser to be used

  BFGS hessian update to be used

  Lower half triangular hessian to be used

  Start of bulk optimisation :

  Cycle:      0 Energy:       -79.075421  Gnorm:      0.075586  CPU:   70.490
  ** Hessian calculated **
  Cycle:      1 Energy:       -79.389348  Gnorm:      0.274150  CPU:   70.513
  Cycle:      2 Energy:       -79.416246  Gnorm:      0.161890  CPU:   70.536
  Cycle:      3 Energy:       -79.433417  Gnorm:      0.224980  CPU:   70.560
  Cycle:      4 Energy:       -79.440162  Gnorm:      0.078157  CPU:   70.578
  Cycle:      5 Energy:       -79.441059  Gnorm:      0.149497  CPU:   70.597
  Cycle:      6 Energy:       -79.442129  Gnorm:      0.242754  CPU:   70.621
  Cycle:      7 Energy:       -79.443039  Gnorm:      0.315217  CPU:   70.645
  Cycle:      8 Energy:       -79.444230  Gnorm:      0.381891  CPU:   70.668
  Cycle:      9 Energy:       -79.445146  Gnorm:      0.411683  CPU:   70.687
  Cycle:     10 Energy:       -79.446171  Gnorm:      0.431591  CPU:   70.711
  ** Hessian calculated **
  Cycle:     11 Energy:       -79.455188  Gnorm:      0.097171  CPU:   70.742
  Cycle:     12 Energy:       -79.461027  Gnorm:      0.088719  CPU:   70.765
  Cycle:     13 Energy:       -79.464142  Gnorm:      0.214297  CPU:   70.784
  Cycle:     14 Energy:       -79.543050  Gnorm:      0.545042  CPU:   70.826
  ** Hessian calculated **
  Cycle:     15 Energy:       -79.601864  Gnorm:      0.534715  CPU:   70.857
  Cycle:     16 Energy:       -79.717931  Gnorm:      0.751685  CPU:   70.891
  Cycle:     17 Energy:       -79.904742  Gnorm:      1.528570  CPU:   70.924
  ** Hessian calculated **
  Cycle:     18 Energy:       -80.388641  Gnorm:      1.771317  CPU:   70.960
  ** Hessian calculated **
  Cycle:     19 Energy:       -80.945969  Gnorm:      2.057380  CPU:   71.002
  ** Hessian calculated **
  Cycle:     20 Energy:       -84.687633  Gnorm:      3.432627  CPU:   71.056
  ** Hessian calculated **
  Cycle:     21 Energy:       -90.393551  Gnorm:     10.809452  CPU:   71.124
  ** Hessian calculated **
  Cycle:     22 Energy:       -98.499470  Gnorm:     12.219204  CPU:   71.188
  ** Hessian calculated **


!!!!!!!!!!!!!!!!!!!!!!!!!!!!!!!!!!!!!!!!!!!!!!!!!!!!!!!!!!!!!!!!!!!!!!!!!!!!!!!!
!! ERROR : Largest core-shell distance exceeds cutoff of cuts
!!!!!!!!!!!!!!!!!!!!!!!!!!!!!!!!!!!!!!!!!!!!!!!!!!!!!!!!!!!!!!!!!!!!!!!!!!!!!!!!


  Largest core-shell distance =   0.8592 Angstroms


 Program terminated by processor     0 in            cutscheck

