 # File generated with Atomsk by ben on 2022-05-27 10:56:23
 
          54  atoms
           3  atom types
 
      0.000000000000      10.327240000000  xlo xhi
      0.000000000000      10.227229666093  ylo yhi
      0.000000000000      10.309904261739  zlo zhi
      0.055082772874       0.063504694261       0.018253795003  xy xz yz
 
Masses
 
            1   6.94000000              # Li
            2   44.95591200             # Sc
            3   35.45000000             # Cl
 
Atoms # charge
 
         1    1   1.000000        3.916401651515       3.824467264188       8.996700826209
         2    1   1.000000        2.542084471013       7.784083107255       5.213533006885
         3    1   1.000000       10.355273342013       7.691185385436       7.625937195185
         4    1   1.000000        7.784928585763       5.173977986990       2.583218682109
         5    1   1.000000        5.138933768448       0.070938679031       5.223368655551
         6    1   1.000000        2.376848789095       0.171756642044       2.686348654439
         7    1   1.000000        5.315395152851       7.679123472647       7.843177187884
         8    1   1.000000        2.624305934294       7.676882485484       0.055859061290
         9    1   1.000000        2.624246166031       5.167591262049       2.586208554345
        10    1   1.000000        7.814152236220       5.188102956519       7.730675512580
        11    1   1.000000        2.539927499369       2.637177116206       5.079813548610
        12    1   1.000000        7.819417250374       2.577594009321      10.261684839507
        13    1   1.000000        5.024235053321       2.674123657737       2.581888704459
        14    1   1.000000        0.111422491159       7.679492878802       2.697070954871
        15    1   1.000000        7.932410632462       7.679999558522       5.224502745019
        16    1   1.000000        2.679969392749      10.181087738326       7.736521228296
        17    1   1.000000       10.303303138407       0.060528642101       5.218316802462
        18    2   3.000000        5.172199997009       5.166317331937       5.107258513755
        19    2   3.000000       10.329951290551       2.462606080564       7.729809480622
        20    2   3.000000        5.223869315933      10.186715094156      10.250612002330
        21    2   3.000000        7.817048343018       0.048447005422       2.605519005027
        22    2   3.000000       10.304845948213       5.166081961896       0.064354422402
        23    3  -1.000000        2.665196816453       2.582893965465       2.695833766360
        24    3  -1.000000        7.643681821312       5.181613944550       5.064946666665
        25    3  -1.000000        5.223434292558      10.226421338363       7.821072753147
        26    3  -1.000000        0.132967106039       7.591629757077      10.263633411413
        27    3  -1.000000        2.690447863036       0.016871796730       0.113759483624
        28    3  -1.000000        7.866318281543       7.557093786037       7.624586597727
        29    3  -1.000000        5.112442366247       2.691722184908       5.139415105147
        30    3  -1.000000       10.299623946268       5.162578512418       2.504543802687
        31    3  -1.000000        5.176898385161       7.666098127799       5.240349067870
        32    3  -1.000000        7.859925646486       5.065259991841       0.069035118937
        33    3  -1.000000        0.064583537917       0.053624675043       7.782719909293
        34    3  -1.000000       10.398988308256       2.659373881697      10.257571187707
        35    3  -1.000000        5.217142685721       5.137719608844       2.645150277009
        36    3  -1.000000        2.683963262267       0.041763625103       5.161653568640
        37    3  -1.000000        2.617525331092       7.798818904555       7.771564592882
        38    3  -1.000000        5.245038338985       0.010921029649       2.529143234256
        39    3  -1.000000        7.663688081467       2.485507665305       2.497955773864
        40    3  -1.000000        0.088417985963       5.045760850954       7.852249903634
        41    3  -1.000000        2.721199865638       5.202831175496       5.102969593582
        42    3  -1.000000        7.689326884343      10.214187478291       0.108357093791
        43    3  -1.000000        2.487333221352       5.155796285131       0.112212997985
        44    3  -1.000000       10.234775702059       0.054595412697       2.670100245322
        45    3  -1.000000        5.289826399045       5.173872737053       7.624359779833
        46    3  -1.000000        7.613774435728       0.017060915206       5.043893842162
        47    3  -1.000000        0.064522355554       2.523735388284       5.327467758881
        48    3  -1.000000        5.202101327747       7.788074888341      10.292800130569
        49    3  -1.000000        5.238624695999       2.449707341817       0.057467406355
        50    3  -1.000000        0.077697695267       7.846007162608       5.206728470072
        51    3  -1.000000        7.925485602006       2.672310412507       7.842507044107
        52    3  -1.000000        2.482749774395       7.750778657686       2.617323845406
        53    3  -1.000000        7.908879929302       7.798937736703       2.674554123963
        54    3  -1.000000        2.513555568877       2.474269328025       7.703302716765
