ITEM: TIMESTEP

0

ITEM: NUMBER OF ATOMS

1458

ITEM: BOX BOUNDS xy xz yz pp pp pp

-1.0681139225750498e+00 3.1768555640020178e+01 -3.4462023997898279e-02

-1.4208058931420289e+00 3.2264828496812072e+01 -1.0598191856576492e-01

-1.2956563009725393e+00 3.2156963481401696e+01 -9.5900442286863355e-02

ITEM: ATOMS element NONE x y z q

ITEM:elementNONExyzq
Li10.291666670.291666670.625000001
Li10.291666670.958333330.958333331
Li10.625000000.625000000.958333331
Li10.458333330.125000000.291666671
Li10.791666670.458333330.625000001
Li10.791666670.791666670.291666671
Li10.125000000.958333330.458333331
Li10.458333330.291666670.125000001
Li10.625000000.125000000.458333331
Li10.625000000.458333330.791666671
Li10.958333330.458333330.458333331
Li10.375000000.041666670.041666671
Li10.375000000.041666670.375000001
Li10.375000000.708333330.375000001
Li10.208333330.208333330.041666671
Li10.541666670.875000000.041666671
Li10.208333330.375000000.208333331
Li10.208333330.708333330.541666671
Li10.541666670.708333330.875000001
Li10.041666670.875000000.208333331
Li10.041666670.875000000.541666671
Li10.375000000.208333330.875000001
Li10.708333330.541666670.208333331
Li10.083333330.750000001.000000001
Li10.416666670.750000000.333333331
Li10.750000000.083333331.000000001
Li10.750000000.416666671.000000001
Li10.750000000.750000000.333333331
Li10.250000000.250000000.333333331
Li10.250000000.250000000.666666671
Li10.583333330.583333330.000000001
Li10.916666670.583333330.333333331
Li10.916666670.916666671.000000001
Li10.916666670.916666670.333333331
Li10.250000000.083333330.833333331
Li10.250000000.750000000.166666671
Li10.583333330.083333330.833333331
Li10.083333330.250000000.833333331
Li10.416666670.583333330.166666671
Li10.416666670.916666670.166666671
Li10.416666670.916666670.500000001
Li10.750000000.250000000.833333331
Li10.750000000.583333330.166666671
Li10.750000000.916666670.833333331
Li10.083333330.333333330.083333331
Li10.416666670.666666670.416666671
Li10.750000000.000000000.750000001
Li10.750000000.333333330.083333331
Li10.750000000.333333330.750000001
Li10.250000000.500000000.083333331
Li10.250000000.500000000.416666671
Li10.250000000.833333330.083333331
Li10.583333330.166666670.416666671
Li10.583333330.500000000.416666671
Li10.583333330.500000000.750000001
Li10.916666670.500000000.083333331
Li10.916666670.500000000.416666671
Li10.916666670.833333330.416666671
Li10.250000000.000000000.250000001
Li10.250000000.000000000.916666671
Li10.250000000.333333330.916666671
Li10.583333330.000000000.916666671
Li10.583333330.333333330.250000001
Li10.916666670.000000000.250000001
Li10.916666670.000000000.583333331
Li10.916666670.000000000.916666671
Li10.916666670.333333330.916666671
Li10.916666670.666666670.916666671
Li10.083333330.500000000.250000001
Li10.083333330.500000000.583333331
Li10.750000000.166666670.250000001
Li10.750000000.166666670.583333331
Li10.000000000.416666670.416666671
Li10.000000000.416666670.750000001
Li10.000000000.750000000.416666671
Li10.333333330.083333330.083333331
Li10.333333330.416666670.750000001
Li10.333333330.750000000.750000001
Li10.666666670.083333330.083333331
Li10.666666670.750000000.416666671
Li10.666666670.750000000.750000001
Li10.166666670.250000000.416666671
Li10.166666670.250000000.750000001
Li10.166666670.916666670.083333331
Li10.500000000.250000000.083333331
Li10.500000000.583333330.083333331
Li10.500000000.916666670.750000001
Li10.833333330.583333330.750000001
Li10.833333330.916666670.750000001
Li10.166666670.750000000.250000001
Li10.166666670.750000000.916666671
Li10.500000000.083333330.250000001
Li10.500000000.083333330.583333331
Li10.500000000.416666670.250000001
Li10.500000000.416666670.916666671
Li10.833333330.083333330.583333331
Li10.833333330.416666670.583333331
Li10.833333330.416666670.916666671
Li10.833333330.750000000.583333331
Li10.000000000.583333330.250000001
Li10.000000000.916666670.916666671
Li10.333333330.916666670.250000001
Li10.333333330.916666670.916666671
Li10.666666670.916666670.250000001
Li10.333333330.000000000.333333331
Li10.333333330.333333331.000000001
Li10.333333330.333333330.333333331
Li10.333333330.666666671.000000001
Li10.333333330.666666670.333333331
Li10.666666670.666666670.333333331
Li10.166666670.166666670.333333331
Li10.166666670.500000000.666666671
Li10.166666670.833333331.000000001
Li10.166666670.833333330.333333331
Li10.500000000.166666670.333333331
Li10.500000000.166666670.666666671
Li10.833333330.166666670.333333331
Li10.166666670.333333330.833333331
Li10.166666670.666666670.500000001
Li10.500000000.000000000.500000001
Li10.833333330.000000000.500000001
Li10.833333330.333333330.166666671
Li10.833333330.333333330.833333331
Li10.833333330.666666670.833333331
Li10.000000000.166666670.833333331
Li10.000000000.500000000.166666671
Li10.000000000.500000000.500000001
Li10.333333330.833333330.833333331
Li10.666666670.500000000.833333331
Li10.291666670.208333330.208333331
Li10.625000000.208333330.875000001
Li10.625000000.875000000.541666671
Li10.958333330.208333330.875000001
Li10.791666670.708333330.208333331
Li10.291666670.041666670.375000001
Li10.375000000.125000000.875000001
Li10.708333330.625000000.708333331
Li10.208333330.125000000.708333331
Li10.875000000.458333330.375000001
Li10.375000000.541666670.291666671
Li10.541666670.708333330.291666671
Li10.541666670.208333330.958333331
Li10.041666670.375000000.958333331
Li10.708333330.041666670.958333331
Li10.208333330.708333330.458333331
Li10.708333330.791666670.375000001
Li10.625000000.375000000.875000001
Li10.458333330.041666670.041666671
Li10.791666670.708333330.375000001
Li10.708333330.291666670.791666671
Li10.708333330.958333330.125000001
Li10.208333330.625000000.625000001
Li10.791666670.208333330.458333331
Li10.291666670.708333330.458333331
Li10.291666670.541666670.958333331
Li10.625000000.875000000.958333331
Li10.791666670.375000000.625000001
Li10.125000000.125000000.875000001
Li10.458333330.458333330.875000001
Li10.125000000.291666670.041666671
Li10.791666670.625000000.041666671
Li10.708333330.125000000.125000001
Li10.166666670.166666670.166666671
Li10.166666670.166666670.833333331
Li10.166666670.500000000.166666671
Li10.166666670.500000000.500000001
Li10.166666670.500000000.833333331
Li10.166666670.833333330.500000001
Li10.166666670.833333330.833333331
Li10.500000000.166666670.833333331
Li10.500000000.500000000.500000001
Li10.500000000.500000000.833333331
Li10.500000000.833333330.833333331
Li10.833333330.166666670.166666671
Li10.833333330.166666670.833333331
Li10.833333330.500000000.166666671
Li10.833333330.500000000.833333331
Li10.833333330.833333330.500000001
Li10.833333330.833333330.833333331
Li10.000000000.000000000.500000001
Li10.000000000.000000000.833333331
Li10.000000000.333333330.166666671
Li10.000000000.333333330.833333331
Li10.000000000.666666670.166666671
Li10.000000000.666666670.500000001
Li10.000000000.666666670.833333331
Li10.333333330.000000000.166666671
Li10.333333330.000000000.500000001
Li10.333333330.000000000.833333331
Li10.333333330.333333330.166666671
Li10.333333330.333333330.500000001
Li10.333333330.666666670.166666671
Li10.333333330.666666670.500000001
Li10.333333330.666666670.833333331
Li10.666666670.000000000.500000001
Li10.666666670.000000000.833333331
Li10.666666670.333333330.500000001
Li10.666666670.333333330.833333331
Li10.666666670.666666670.166666671
Li10.666666670.666666670.833333331
Li10.000000000.166666670.000000001
Li10.000000000.166666670.333333331
Li10.000000000.166666670.666666671
Li10.000000000.500000001.000000001
Li10.000000000.500000000.333333331
Li10.000000000.500000000.666666671
Li10.000000000.833333330.000000001
Li10.000000000.833333330.333333331
Li10.333333330.166666671.000000001
Li10.333333330.166666670.333333331
Li10.333333330.166666670.666666671
Li10.333333330.500000001.000000001
Li10.333333330.833333331.000000001
Li10.333333330.833333330.666666671
Li10.666666670.166666670.000000001
Li10.666666670.166666670.666666671
Li10.666666670.500000001.000000001
Li10.666666670.500000000.333333331
Li10.666666670.500000000.666666671
Li10.666666670.833333331.000000001
Li10.666666670.833333330.333333331
Li10.666666670.833333330.666666671
Li10.166666670.000000000.000000001
Li10.166666670.000000000.333333331
Li10.166666670.333333330.000000001
Li10.166666670.333333330.333333331
Li10.166666670.666666670.333333331
Li10.500000000.000000001.000000001
Li10.500000000.000000000.333333331
Li10.500000000.333333330.333333331
Li10.500000000.333333330.666666671
Li10.500000000.666666670.000000001
Li10.500000000.666666670.333333331
Li10.500000000.666666670.666666671
Li10.833333330.000000000.666666671
Li10.833333330.666666671.000000001
Li10.833333330.666666670.333333331
Li10.833333330.666666670.666666671
Li10.166666670.083333330.083333331
Li10.166666670.083333330.416666671
Li10.166666670.083333330.750000001
Li10.166666670.416666670.750000001
Li10.500000000.083333330.083333331
Li10.500000000.416666670.083333331
Li10.500000000.416666670.750000001
Li10.500000000.750000000.750000001
Li10.833333330.083333330.083333331
Li10.833333330.083333330.416666671
Li10.833333330.416666670.416666671
Li10.833333330.750000000.416666671
Li10.000000000.250000000.416666671
Li10.000000000.250000000.750000001
Li10.000000000.583333330.083333331
Li10.000000000.583333330.416666671
Li10.000000000.583333330.750000001
Li10.000000000.916666670.083333331
Li10.333333330.250000000.083333331
Li10.333333330.250000000.416666671
Li10.333333330.583333330.083333331
Li10.333333330.583333330.750000001
Li10.333333330.916666670.083333331
Li10.333333330.916666670.416666671
Li10.666666670.250000000.416666671
Li10.666666670.583333330.083333331
Li10.666666670.583333330.416666671
Li10.666666670.583333330.750000001
Li10.666666670.916666670.083333331
Li10.666666670.916666670.416666671
Li10.666666670.916666670.750000001
Li10.000000000.083333330.916666671
Li10.000000000.416666670.250000001
Li10.000000000.416666670.583333331
Li10.000000000.416666670.916666671
Li10.000000000.750000000.250000001
Li10.333333330.083333330.583333331
Li10.333333330.083333330.916666671
Li10.333333330.416666670.250000001
Li10.333333330.416666670.916666671
Li10.333333330.750000000.250000001
Li10.333333330.750000000.583333331
Li10.333333330.750000000.916666671
Li10.666666670.083333330.250000001
Li10.666666670.083333330.583333331
Li10.666666670.083333330.916666671
Li10.666666670.416666670.583333331
Li10.666666670.750000000.250000001
Li10.666666670.750000000.583333331
Li10.166666670.250000000.250000001
Li10.166666670.250000000.583333331
Li10.166666670.583333330.250000001
Li10.166666670.583333330.916666671
Li10.166666670.916666670.250000001
Li10.166666670.916666670.583333331
Li10.166666670.916666670.916666671
Li10.500000000.250000000.916666671
Li10.500000000.583333330.250000001
Li10.500000000.583333330.916666671
Li10.500000000.916666670.250000001
Li10.500000000.916666670.583333331
Li10.500000000.916666670.916666671
Li10.833333330.250000000.250000001
Li10.833333330.250000000.583333331
Li10.833333330.250000000.916666671
Li10.833333330.583333330.583333331
Li10.833333330.583333330.916666671
Li10.833333330.916666670.583333331
Li10.833333330.916666670.916666671
Li10.083333330.166666670.083333331
Li10.083333330.500000000.083333331
Li10.083333330.500000000.416666671
Li10.083333330.500000000.750000001
Li10.416666670.166666670.083333331
Li10.416666670.166666670.416666671
Li10.416666670.166666670.750000001
Li10.416666670.500000000.750000001
Li10.750000000.166666670.083333331
Li10.750000000.166666670.416666671
Li10.750000000.166666670.750000001
Li10.750000000.500000000.750000001
Li10.750000000.833333330.416666671
Li10.250000000.000000000.083333331
Li10.250000000.000000000.416666671
Li10.250000000.000000000.750000001
Li10.250000000.333333330.083333331
Li10.250000000.333333330.416666671
Li10.250000000.666666670.083333331
Li10.250000000.666666670.416666671
Li10.250000000.666666670.750000001
Li10.583333330.000000000.083333331
Li10.583333330.000000000.750000001
Li10.583333330.333333330.416666671
Li10.583333330.333333330.750000001
Li10.583333330.666666670.083333331
Li10.583333330.666666670.416666671
Li10.583333330.666666670.750000001
Li10.916666670.000000000.083333331
Li10.916666670.000000000.750000001
Li10.916666670.333333330.416666671
Li10.916666670.666666670.083333331
Li10.916666670.666666670.416666671
Li10.916666670.666666670.750000001
Li10.250000000.166666670.250000001
Li10.250000000.166666670.583333331
Li10.250000000.166666670.916666671
Li10.250000000.500000000.250000001
Li10.250000000.500000000.583333331
Li10.250000000.833333330.250000001
Li10.250000000.833333330.583333331
Li10.250000000.833333330.916666671
Li10.583333330.166666670.583333331
Li10.583333330.166666670.916666671
Li10.583333330.500000000.250000001
Li10.583333330.500000000.583333331
Li10.583333330.833333330.250000001
Li10.583333330.833333330.583333331
Li10.916666670.166666670.250000001
Li10.916666670.500000000.583333331
Li10.916666670.833333330.250000001
Li10.916666670.833333330.583333331
Li10.916666670.833333330.916666671
Li10.083333330.000000000.250000001
Li10.083333330.000000000.583333331
Li10.083333330.000000000.916666671
Li10.083333330.333333330.250000001
Li10.083333330.333333330.583333331
Li10.083333330.333333330.916666671
Li10.083333330.666666670.250000001
Li10.083333330.666666670.583333331
Li10.416666670.000000000.916666671
Li10.416666670.333333330.250000001
Li10.416666670.333333330.583333331
Li10.416666670.333333330.916666671
Li10.416666670.666666670.250000001
Li10.416666670.666666670.916666671
Li10.750000000.000000000.250000001
Li10.750000000.000000000.583333331
Li10.750000000.333333330.250000001
Li10.750000000.333333330.583333331
Li10.750000000.333333330.916666671
Li10.750000000.666666670.250000001
Li10.083333330.083333330.166666671
Li10.083333330.083333330.500000001
Li10.083333330.083333330.833333331
Li10.083333330.416666670.166666671
Li10.083333330.416666670.500000001
Li10.083333330.750000000.166666671
Li10.083333330.750000000.500000001
Li10.416666670.083333330.166666671
Li10.416666670.083333330.500000001
Li10.416666670.416666670.166666671
Li10.416666670.416666670.500000001
Li10.416666670.416666670.833333331
Li10.416666670.750000000.500000001
Li10.416666670.750000000.833333331
Li10.750000000.083333330.500000001
Li10.750000000.416666670.166666671
Li10.750000000.416666670.500000001
Li10.750000000.416666670.833333331
Li10.750000000.750000000.166666671
Li10.750000000.750000000.833333331
Li10.250000000.250000000.166666671
Li10.250000000.250000000.833333331
Li10.250000000.583333330.166666671
Li10.250000000.583333330.833333331
Li10.250000000.916666670.500000001
Li10.583333330.250000000.166666671
Li10.583333330.250000000.833333331
Li10.583333330.583333330.166666671
Li10.583333330.583333330.833333331
Li10.583333330.916666670.166666671
Li10.583333330.916666670.500000001
Li10.583333330.916666670.833333331
Li10.916666670.250000000.833333331
Li10.916666670.583333330.166666671
Li10.916666670.583333330.500000001
Li10.916666670.583333330.833333331
Li10.916666670.916666670.166666671
Li10.916666670.916666670.500000001
Li10.916666670.916666670.833333331
Li10.250000000.083333330.000000001
Li10.250000000.083333330.333333331
Li10.250000000.083333330.666666671
Li10.250000000.416666670.666666671
Li10.250000000.750000000.333333331
Li10.250000000.750000000.666666671
Li10.583333330.083333331.000000001
Li10.583333330.083333330.333333331
Li10.583333330.416666671.000000001
Li10.583333330.416666670.333333331
Li10.583333330.416666670.666666671
Li10.583333330.750000001.000000001
Li10.583333330.750000000.666666671
Li10.916666670.083333330.333333331
Li10.916666670.083333330.666666671
Li10.916666670.416666671.000000001
Li10.916666670.416666670.333333331
Li10.916666670.750000001.000000001
Li10.916666670.750000000.333333331
Li10.916666670.750000000.666666671
Li10.083333330.250000000.000000001
Li10.083333330.250000000.666666671
Li10.083333330.583333331.000000001
Li10.083333330.583333330.666666671
Li10.083333330.916666670.000000001
Li10.083333330.916666670.333333331
Li10.416666670.250000001.000000001
Li10.416666670.250000000.666666671
Li10.416666670.583333330.333333331
Li10.416666670.583333330.666666671
Li10.416666670.916666671.000000001
Li10.416666670.916666670.333333331
Li10.416666670.916666670.666666671
Li10.750000000.250000000.666666671
Li10.750000000.583333331.000000001
Li10.750000000.583333330.333333331
Li10.750000000.583333330.666666671
Li10.750000000.916666671.000000001
Li10.750000000.916666670.333333331
Li10.750000000.916666670.666666671
Sc10.166666670.166666670.500000001
Sc10.166666670.833333330.166666671
Sc10.500000000.166666670.166666671
Sc10.500000000.166666670.500000001
Sc10.500000000.500000000.166666671
Sc10.500000000.833333330.166666671
Sc10.500000000.833333330.500000001
Sc10.833333330.166666670.500000001
Sc10.833333330.500000000.500000001
Sc10.833333330.833333330.166666671
Sc10.000000000.000000000.166666671
Sc10.000000000.333333330.500000001
Sc10.333333330.333333330.833333331
Sc10.666666670.000000000.166666671
Sc10.666666670.333333330.166666671
Sc10.666666670.666666670.500000001
Sc10.000000000.833333330.666666671
Sc10.333333330.500000000.333333331
Sc10.333333330.500000000.666666671
Sc10.333333330.833333330.333333331
Sc10.666666670.166666670.333333331
Sc10.166666670.000000000.666666671
Sc10.166666670.333333330.666666671
Sc10.166666670.666666670.000000001
Sc10.166666670.666666670.666666671
Sc10.500000000.000000000.666666671
Sc10.500000000.333333331.000000001
Sc10.833333330.000000001.000000001
Sc10.833333330.000000000.333333331
Sc10.833333330.333333331.000000001
Sc10.833333330.333333330.333333331
Sc10.833333330.333333330.666666671
Sc10.166666670.416666670.083333331
Sc10.166666670.416666670.416666671
Sc10.166666670.750000000.083333331
Sc10.166666670.750000000.416666671
Sc10.166666670.750000000.750000001
Sc10.500000000.083333330.416666671
Sc10.500000000.083333330.750000001
Sc10.500000000.416666670.416666671
Sc10.500000000.750000000.083333331
Sc10.500000000.750000000.416666671
Sc10.833333330.083333330.750000001
Sc10.833333330.416666670.083333331
Sc10.833333330.416666670.750000001
Sc10.833333330.750000000.083333331
Sc10.833333330.750000000.750000001
Sc10.000000000.250000000.083333331
Sc10.000000000.916666670.416666671
Sc10.000000000.916666670.750000001
Sc10.333333330.250000000.750000001
Sc10.333333330.583333330.416666671
Sc10.333333330.916666670.750000001
Sc10.666666670.250000000.083333331
Sc10.666666670.250000000.750000001
Sc10.000000000.083333330.250000001
Sc10.000000000.083333330.583333331
Sc10.000000000.750000000.583333331
Sc10.000000000.750000000.916666671
Sc10.333333330.083333330.250000001
Sc10.333333330.416666670.583333331
Sc10.666666670.416666670.250000001
Sc10.666666670.416666670.916666671
Sc10.666666670.750000000.916666671
Sc10.166666670.250000000.916666671
Sc10.166666670.583333330.583333331
Sc10.500000000.250000000.250000001
Sc10.500000000.250000000.583333331
Sc10.500000000.583333330.583333331
Sc10.833333330.583333330.250000001
Sc10.833333330.916666670.250000001
Sc10.083333330.166666670.416666671
Sc10.083333330.166666670.750000001
Sc10.083333330.833333330.083333331
Sc10.083333330.833333330.416666671
Sc10.083333330.833333330.750000001
Sc10.416666670.500000000.083333331
Sc10.416666670.500000000.416666671
Sc10.416666670.833333330.083333331
Sc10.416666670.833333330.416666671
Sc10.416666670.833333330.750000001
Sc10.750000000.500000000.083333331
Sc10.750000000.500000000.416666671
Sc10.750000000.833333330.083333331
Sc10.750000000.833333330.750000001
Sc10.250000000.333333330.750000001
Sc10.583333330.000000000.416666671
Sc10.583333330.333333330.083333331
Sc10.916666670.000000000.416666671
Sc10.916666670.333333330.083333331
Sc10.916666670.333333330.750000001
Sc10.250000000.500000000.916666671
Sc10.583333330.166666670.250000001
Sc10.583333330.500000000.916666671
Sc10.583333330.833333330.916666671
Sc10.916666670.166666670.583333331
Sc10.916666670.166666670.916666671
Sc10.916666670.500000000.250000001
Sc10.916666670.500000000.916666671
Sc10.083333330.666666670.916666671
Sc10.416666670.000000000.250000001
Sc10.416666670.000000000.583333331
Sc10.416666670.666666670.583333331
Sc10.750000000.000000000.916666671
Sc10.750000000.666666670.583333331
Sc10.750000000.666666670.916666671
Sc10.083333330.416666670.833333331
Sc10.083333330.750000000.833333331
Sc10.416666670.083333330.833333331
Sc10.416666670.750000000.166666671
Sc10.750000000.083333330.166666671
Sc10.750000000.083333330.833333331
Sc10.750000000.750000000.500000001
Sc10.250000000.250000000.500000001
Sc10.250000000.583333330.500000001
Sc10.250000000.916666670.166666671
Sc10.250000000.916666670.833333331
Sc10.583333330.250000000.500000001
Sc10.583333330.583333330.500000001
Sc10.916666670.250000000.166666671
Sc10.916666670.250000000.500000001
Sc10.250000000.416666671.000000001
Sc10.250000000.416666670.333333331
Sc10.250000000.750000001.000000001
Sc10.583333330.083333330.666666671
Sc10.583333330.750000000.333333331
Sc10.916666670.083333331.000000001
Sc10.916666670.416666670.666666671
Sc10.083333330.250000000.333333331
Sc10.083333330.583333330.333333331
Sc10.083333330.916666670.666666671
Sc10.416666670.250000000.333333331
Sc10.416666670.583333331.000000001
Sc10.750000000.250000001.000000001
Sc10.750000000.250000000.333333331
Cl10.250000000.250000000.250000001
Cl10.250000000.250000000.583333331
Cl10.250000000.250000000.916666671
Cl10.250000000.583333330.250000001
Cl10.250000000.583333330.583333331
Cl10.250000000.583333330.916666671
Cl10.250000000.916666670.250000001
Cl10.250000000.916666670.583333331
Cl10.250000000.916666670.916666671
Cl10.583333330.250000000.250000001
Cl10.583333330.250000000.583333331
Cl10.583333330.250000000.916666671
Cl10.583333330.583333330.250000001
Cl10.583333330.583333330.583333331
Cl10.583333330.583333330.916666671
Cl10.583333330.916666670.250000001
Cl10.583333330.916666670.583333331
Cl10.583333330.916666670.916666671
Cl10.916666670.250000000.250000001
Cl10.916666670.250000000.583333331
Cl10.916666670.250000000.916666671
Cl10.916666670.583333330.250000001
Cl10.916666670.583333330.583333331
Cl10.916666670.583333330.916666671
Cl10.916666670.916666670.250000001
Cl10.916666670.916666670.583333331
Cl10.916666670.916666670.916666671
Cl10.083333330.083333330.250000001
Cl10.083333330.083333330.583333331
Cl10.083333330.083333330.916666671
Cl10.083333330.416666670.250000001
Cl10.083333330.416666670.583333331
Cl10.083333330.416666670.916666671
Cl10.083333330.750000000.250000001
Cl10.083333330.750000000.583333331
Cl10.083333330.750000000.916666671
Cl10.416666670.083333330.250000001
Cl10.416666670.083333330.583333331
Cl10.416666670.083333330.916666671
Cl10.416666670.416666670.250000001
Cl10.416666670.416666670.583333331
Cl10.416666670.416666670.916666671
Cl10.416666670.750000000.250000001
Cl10.416666670.750000000.583333331
Cl10.416666670.750000000.916666671
Cl10.750000000.083333330.250000001
Cl10.750000000.083333330.583333331
Cl10.750000000.083333330.916666671
Cl10.750000000.416666670.250000001
Cl10.750000000.416666670.583333331
Cl10.750000000.416666670.916666671
Cl10.750000000.750000000.250000001
Cl10.750000000.750000000.583333331
Cl10.750000000.750000000.916666671
Cl10.083333330.250000000.083333331
Cl10.083333330.250000000.416666671
Cl10.083333330.250000000.750000001
Cl10.083333330.583333330.083333331
Cl10.083333330.583333330.416666671
Cl10.083333330.583333330.750000001
Cl10.083333330.916666670.083333331
Cl10.083333330.916666670.416666671
Cl10.083333330.916666670.750000001
Cl10.416666670.250000000.083333331
Cl10.416666670.250000000.416666671
Cl10.416666670.250000000.750000001
Cl10.416666670.583333330.083333331
Cl10.416666670.583333330.416666671
Cl10.416666670.583333330.750000001
Cl10.416666670.916666670.083333331
Cl10.416666670.916666670.416666671
Cl10.416666670.916666670.750000001
Cl10.750000000.250000000.083333331
Cl10.750000000.250000000.416666671
Cl10.750000000.250000000.750000001
Cl10.750000000.583333330.083333331
Cl10.750000000.583333330.416666671
Cl10.750000000.583333330.750000001
Cl10.750000000.916666670.083333331
Cl10.750000000.916666670.416666671
Cl10.750000000.916666670.750000001
Cl10.250000000.083333330.083333331
Cl10.250000000.083333330.416666671
Cl10.250000000.083333330.750000001
Cl10.250000000.416666670.083333331
Cl10.250000000.416666670.416666671
Cl10.250000000.416666670.750000001
Cl10.250000000.750000000.083333331
Cl10.250000000.750000000.416666671
Cl10.250000000.750000000.750000001
Cl10.583333330.083333330.083333331
Cl10.583333330.083333330.416666671
Cl10.583333330.083333330.750000001
Cl10.583333330.416666670.083333331
Cl10.583333330.416666670.416666671
Cl10.583333330.416666670.750000001
Cl10.583333330.750000000.083333331
Cl10.583333330.750000000.416666671
Cl10.583333330.750000000.750000001
Cl10.916666670.083333330.083333331
Cl10.916666670.083333330.416666671
Cl10.916666670.083333330.750000001
Cl10.916666670.416666670.083333331
Cl10.916666670.416666670.416666671
Cl10.916666670.416666670.750000001
Cl10.916666670.750000000.083333331
Cl10.916666670.750000000.416666671
Cl10.916666670.750000000.750000001
Cl10.250000000.166666670.166666671
Cl10.250000000.166666670.500000001
Cl10.250000000.166666670.833333331
Cl10.250000000.500000000.166666671
Cl10.250000000.500000000.500000001
Cl10.250000000.500000000.833333331
Cl10.250000000.833333330.166666671
Cl10.250000000.833333330.500000001
Cl10.250000000.833333330.833333331
Cl10.583333330.166666670.166666671
Cl10.583333330.166666670.500000001
Cl10.583333330.166666670.833333331
Cl10.583333330.500000000.166666671
Cl10.583333330.500000000.500000001
Cl10.583333330.500000000.833333331
Cl10.583333330.833333330.166666671
Cl10.583333330.833333330.500000001
Cl10.583333330.833333330.833333331
Cl10.916666670.166666670.166666671
Cl10.916666670.166666670.500000001
Cl10.916666670.166666670.833333331
Cl10.916666670.500000000.166666671
Cl10.916666670.500000000.500000001
Cl10.916666670.500000000.833333331
Cl10.916666670.833333330.166666671
Cl10.916666670.833333330.500000001
Cl10.916666670.833333330.833333331
Cl10.083333330.000000000.166666671
Cl10.083333330.000000000.500000001
Cl10.083333330.000000000.833333331
Cl10.083333330.333333330.166666671
Cl10.083333330.333333330.500000001
Cl10.083333330.333333330.833333331
Cl10.083333330.666666670.166666671
Cl10.083333330.666666670.500000001
Cl10.083333330.666666670.833333331
Cl10.416666670.000000000.166666671
Cl10.416666670.000000000.500000001
Cl10.416666670.000000000.833333331
Cl10.416666670.333333330.166666671
Cl10.416666670.333333330.500000001
Cl10.416666670.333333330.833333331
Cl10.416666670.666666670.166666671
Cl10.416666670.666666670.500000001
Cl10.416666670.666666670.833333331
Cl10.750000000.000000000.166666671
Cl10.750000000.000000000.500000001
Cl10.750000000.000000000.833333331
Cl10.750000000.333333330.166666671
Cl10.750000000.333333330.500000001
Cl10.750000000.333333330.833333331
Cl10.750000000.666666670.166666671
Cl10.750000000.666666670.500000001
Cl10.750000000.666666670.833333331
Cl10.083333330.166666670.000000001
Cl10.083333330.166666670.333333331
Cl10.083333330.166666670.666666671
Cl10.083333330.500000000.000000001
Cl10.083333330.500000000.333333331
Cl10.083333330.500000000.666666671
Cl10.083333330.833333331.000000001
Cl10.083333330.833333330.333333331
Cl10.083333330.833333330.666666671
Cl10.416666670.166666670.000000001
Cl10.416666670.166666670.333333331
Cl10.416666670.166666670.666666671
Cl10.416666670.500000001.000000001
Cl10.416666670.500000000.333333331
Cl10.416666670.500000000.666666671
Cl10.416666670.833333331.000000001
Cl10.416666670.833333330.333333331
Cl10.416666670.833333330.666666671
Cl10.750000000.166666671.000000001
Cl10.750000000.166666670.333333331
Cl10.750000000.166666670.666666671
Cl10.750000000.500000001.000000001
Cl10.750000000.500000000.333333331
Cl10.750000000.500000000.666666671
Cl10.750000000.833333331.000000001
Cl10.750000000.833333330.333333331
Cl10.750000000.833333330.666666671
Cl10.250000000.000000001.000000001
Cl10.250000000.000000000.333333331
Cl10.250000000.000000000.666666671
Cl10.250000000.333333330.000000001
Cl10.250000000.333333330.333333331
Cl10.250000000.333333330.666666671
Cl10.250000000.666666671.000000001
Cl10.250000000.666666670.333333331
Cl10.250000000.666666670.666666671
Cl10.583333330.000000000.000000001
Cl10.583333330.000000000.333333331
Cl10.583333330.000000000.666666671
Cl10.583333330.333333331.000000001
Cl10.583333330.333333330.333333331
Cl10.583333330.333333330.666666671
Cl10.583333330.666666671.000000001
Cl10.583333330.666666670.333333331
Cl10.583333330.666666670.666666671
Cl10.916666670.000000001.000000001
Cl10.916666670.000000000.333333331
Cl10.916666670.000000000.666666671
Cl10.916666670.333333331.000000001
Cl10.916666670.333333330.333333331
Cl10.916666670.333333330.666666671
Cl10.916666670.666666671.000000001
Cl10.916666670.666666670.333333331
Cl10.916666670.666666670.666666671
Cl10.166666670.250000000.166666671
Cl10.166666670.250000000.500000001
Cl10.166666670.250000000.833333331
Cl10.166666670.583333330.166666671
Cl10.166666670.583333330.500000001
Cl10.166666670.583333330.833333331
Cl10.166666670.916666670.166666671
Cl10.166666670.916666670.500000001
Cl10.166666670.916666670.833333331
Cl10.500000000.250000000.166666671
Cl10.500000000.250000000.500000001
Cl10.500000000.250000000.833333331
Cl10.500000000.583333330.166666671
Cl10.500000000.583333330.500000001
Cl10.500000000.583333330.833333331
Cl10.500000000.916666670.166666671
Cl10.500000000.916666670.500000001
Cl10.500000000.916666670.833333331
Cl10.833333330.250000000.166666671
Cl10.833333330.250000000.500000001
Cl10.833333330.250000000.833333331
Cl10.833333330.583333330.166666671
Cl10.833333330.583333330.500000001
Cl10.833333330.583333330.833333331
Cl10.833333330.916666670.166666671
Cl10.833333330.916666670.500000001
Cl10.833333330.916666670.833333331
Cl10.000000000.083333330.166666671
Cl10.000000000.083333330.500000001
Cl10.000000000.083333330.833333331
Cl10.000000000.416666670.166666671
Cl10.000000000.416666670.500000001
Cl10.000000000.416666670.833333331
Cl10.000000000.750000000.166666671
Cl10.000000000.750000000.500000001
Cl10.000000000.750000000.833333331
Cl10.333333330.083333330.166666671