ITEM: TIMESTEP
0
ITEM: NUMBER OF ATOMS
1458
ITEM: BOX BOUNDS xy xz yz pp pp pp
-1.0681139225750498e+00 3.1768555640020178e+01 -3.4462023997898279e-02
-1.4208058931420289e+00 3.2264828496812072e+01 -1.0598191856576492e-01
-1.2956563009725393e+00 3.2156963481401696e+01 -9.5900442286863355e-02
ITEM: ATOMS element x y z
Li 3.945185892 4.0033034096 9.466899 
Li 3.945185892 4.0033034096 20.186899214399997 
Li 3.945185892 4.0033034096 30.906899107199997 
Li 3.945185892 14.7566366354 9.466899 
Li 3.945185892 14.7566366354 20.186899214399997 
Li 3.945185892 14.7566366354 30.906899107199997 
Li 3.945185892 25.509969861200002 9.466899 
Li 3.945185892 25.509969861200002 20.186899214399997 
Li 3.945185892 25.509969861200002 30.906899107199997 
Li 14.5351857861 4.0033034096 9.466899 
Li 14.5351857861 4.0033034096 20.186899214399997 
Li 14.5351857861 4.0033034096 30.906899107199997 
Li 14.5351857861 14.7566366354 9.466899 
Li 14.5351857861 14.7566366354 20.186899214399997 
Li 14.5351857861 14.7566366354 30.906899107199997 
Li 14.5351857861 25.509969861200002 9.466899 
Li 14.5351857861 25.509969861200002 20.186899214399997 
Li 14.5351857861 25.509969861200002 30.906899107199997 
Li 25.1251856802 4.0033034096 9.466899 
Li 25.1251856802 4.0033034096 20.186899214399997 
Li 25.1251856802 4.0033034096 30.906899107199997 
Li 25.1251856802 14.7566366354 9.466899 
Li 25.1251856802 14.7566366354 20.186899214399997 
Li 25.1251856802 14.7566366354 30.906899107199997 
Li 25.1251856802 25.509969861200002 9.466899 
Li 25.1251856802 25.509969861200002 20.186899214399997 
Li 25.1251856802 25.509969861200002 30.906899107199997 
Li 5.3577957348 8.070859383799998 2.6946674255999996 
Li 5.3577957348 8.070859383799998 13.414667639999998 
Li 5.3577957348 8.070859383799998 24.134667532799998 
Li 5.3577957348 18.8241926096 2.6946674255999996 
Li 5.3577957348 18.8241926096 13.414667639999998 
Li 5.3577957348 18.8241926096 24.134667532799998 
Li 5.3577957348 29.5775258354 2.6946674255999996 
Li 5.3577957348 29.5775258354 13.414667639999998 
Li 5.3577957348 29.5775258354 24.134667532799998 
Li 15.947795628899998 8.070859383799998 2.6946674255999996 
Li 15.947795628899998 8.070859383799998 13.414667639999998 
Li 15.947795628899998 8.070859383799998 24.134667532799998 
Li 15.947795628899998 18.8241926096 2.6946674255999996 
Li 15.947795628899998 18.8241926096 13.414667639999998 
Li 15.947795628899998 18.8241926096 24.134667532799998 
Li 15.947795628899998 29.5775258354 2.6946674255999996 
Li 15.947795628899998 29.5775258354 13.414667639999998 
Li 15.947795628899998 29.5775258354 24.134667532799998 
Li 26.537795523 8.070859383799998 2.6946674255999996 
Li 26.537795523 8.070859383799998 13.414667639999998 
Li 26.537795523 8.070859383799998 24.134667532799998 
Li 26.537795523 18.8241926096 2.6946674255999996 
Li 26.537795523 18.8241926096 13.414667639999998 
Li 26.537795523 18.8241926096 24.134667532799998 
Li 26.537795523 29.5775258354 2.6946674255999996 
Li 26.537795523 29.5775258354 13.414667639999998 
Li 26.537795523 29.5775258354 24.134667532799998 
Li 2.7600174792 7.9503950596 5.5394757407999995 
Li 2.7600174792 7.9503950596 16.2594756336 
Li 2.7600174792 7.9503950596 26.979475847999996 
Li 2.7600174792 18.703728608 5.5394757407999995 
Li 2.7600174792 18.703728608 16.2594756336 
Li 2.7600174792 18.703728608 26.979475847999996 
Li 2.7600174792 29.457061833799997 5.5394757407999995 
Li 2.7600174792 29.457061833799997 16.2594756336 
Li 2.7600174792 29.457061833799997 26.979475847999996 
Li 13.3500173733 7.9503950596 5.5394757407999995 
Li 13.3500173733 7.9503950596 16.2594756336 
Li 13.3500173733 7.9503950596 26.979475847999996 
Li 13.3500173733 18.703728608 5.5394757407999995 
Li 13.3500173733 18.703728608 16.2594756336 
Li 13.3500173733 18.703728608 26.979475847999996 
Li 13.3500173733 29.457061833799997 5.5394757407999995 
Li 13.3500173733 29.457061833799997 16.2594756336 
Li 13.3500173733 29.457061833799997 26.979475847999996 
Li 23.940017585099998 7.9503950596 5.5394757407999995 
Li 23.940017585099998 7.9503950596 16.2594756336 
Li 23.940017585099998 7.9503950596 26.979475847999996 
Li 23.940017585099998 18.703728608 5.5394757407999995 
Li 23.940017585099998 18.703728608 16.2594756336 
Li 23.940017585099998 18.703728608 26.979475847999996 
Li 23.940017585099998 29.457061833799997 5.5394757407999995 
Li 23.940017585099998 29.457061833799997 16.2594756336 
Li 23.940017585099998 29.457061833799997 26.979475847999996 
Li 7.9507154043 5.322249961 2.6882470031999994 
Li 7.9507154043 5.322249961 13.408246895999998 
Li 7.9507154043 5.322249961 24.128246788799995 
Li 7.9507154043 16.0755831868 2.6882470031999994 
Li 7.9507154043 16.0755831868 13.408246895999998 
Li 7.9507154043 16.0755831868 24.128246788799995 
Li 7.9507154043 26.828916735199996 2.6882470031999994 
Li 7.9507154043 26.828916735199996 13.408246895999998 
Li 7.9507154043 26.828916735199996 24.128246788799995 
Li 18.540715298400002 5.322249961 2.6882470031999994 
Li 18.540715298400002 5.322249961 13.408246895999998 
Li 18.540715298400002 5.322249961 24.128246788799995 
Li 18.540715298400002 16.0755831868 2.6882470031999994 
Li 18.540715298400002 16.0755831868 13.408246895999998 
Li 18.540715298400002 16.0755831868 24.128246788799995 
Li 18.540715298400002 26.828916735199996 2.6882470031999994 
Li 18.540715298400002 26.828916735199996 13.408246895999998 
Li 18.540715298400002 26.828916735199996 24.128246788799995 
Li 29.130715192500002 5.322249961 2.6882470031999994 
Li 29.130715192500002 5.322249961 13.408246895999998 
Li 29.130715192500002 5.322249961 24.128246788799995 
Li 29.130715192500002 16.0755831868 2.6882470031999994 
Li 29.130715192500002 16.0755831868 13.408246895999998 
Li 29.130715192500002 16.0755831868 24.128246788799995 
Li 29.130715192500002 26.828916735199996 2.6882470031999994 
Li 29.130715192500002 26.828916735199996 13.408246895999998 
Li 29.130715192500002 26.828916735199996 24.128246788799995 
Li 5.3570875815 0.1623184482 5.422322327999999 
Li 5.3570875815 0.1623184482 16.142322220799997 
Li 5.3570875815 0.1623184482 26.862322113599998 
Li 5.3570875815 10.915651674 5.422322327999999 
Li 5.3570875815 10.915651674 16.142322220799997 
Li 5.3570875815 10.915651674 26.862322113599998 
Li 5.3570875815 21.668984899799998 5.422322327999999 
Li 5.3570875815 21.668984899799998 16.142322220799997 
Li 5.3570875815 21.668984899799998 26.862322113599998 
Li 15.947087475599998 0.1623184482 5.422322327999999 
Li 15.947087475599998 0.1623184482 16.142322220799997 
Li 15.947087475599998 0.1623184482 26.862322113599998 
Li 15.947087475599998 10.915651674 5.422322327999999 
Li 15.947087475599998 10.915651674 16.142322220799997 
Li 15.947087475599998 10.915651674 26.862322113599998 
Li 15.947087475599998 21.668984899799998 5.422322327999999 
Li 15.947087475599998 21.668984899799998 16.142322220799997 
Li 15.947087475599998 21.668984899799998 26.862322113599998 
Li 26.5370873697 0.1623184482 5.422322327999999 
Li 26.5370873697 0.1623184482 16.142322220799997 
Li 26.5370873697 0.1623184482 26.862322113599998 
Li 26.5370873697 10.915651674 5.422322327999999 
Li 26.5370873697 10.915651674 16.142322220799997 
Li 26.5370873697 10.915651674 26.862322113599998 
Li 26.5370873697 21.668984899799998 5.422322327999999 
Li 26.5370873697 21.668984899799998 16.142322220799997 
Li 26.5370873697 21.668984899799998 26.862322113599998 
Li 8.1796837005 8.3006234914 0.0640421376 
Li 8.1796837005 8.3006234914 10.784042030399998 
Li 8.1796837005 8.3006234914 21.504042244799997 
Li 8.1796837005 19.0539570398 0.0640421376 
Li 8.1796837005 19.0539570398 10.784042030399998 
Li 8.1796837005 19.0539570398 21.504042244799997 
Li 8.1796837005 29.8072902656 0.0640421376 
Li 8.1796837005 29.8072902656 10.784042030399998 
Li 8.1796837005 29.8072902656 21.504042244799997 
Li 18.7696839123 8.3006234914 0.0640421376 
Li 18.7696839123 8.3006234914 10.784042030399998 
Li 18.7696839123 8.3006234914 21.504042244799997 
Li 18.7696839123 19.0539570398 0.0640421376 
Li 18.7696839123 19.0539570398 10.784042030399998 
Li 18.7696839123 19.0539570398 21.504042244799997 
Li 18.7696839123 29.8072902656 0.0640421376 
Li 18.7696839123 29.8072902656 10.784042030399998 
Li 18.7696839123 29.8072902656 21.504042244799997 
Li 29.3596838064 8.3006234914 0.0640421376 
Li 29.3596838064 8.3006234914 10.784042030399998 
Li 29.3596838064 8.3006234914 21.504042244799997 
Li 29.3596838064 19.0539570398 0.0640421376 
Li 29.3596838064 19.0539570398 10.784042030399998 
Li 29.3596838064 19.0539570398 21.504042244799997 
Li 29.3596838064 29.8072902656 0.0640421376 
Li 29.3596838064 29.8072902656 10.784042030399998 
Li 29.3596838064 29.8072902656 21.504042244799997 
Li 5.3455795344 5.0827720447999996 5.4162620976 
Li 5.3455795344 5.0827720447999996 16.136261990399998 
Li 5.3455795344 5.0827720447999996 26.856261883199995 
Li 5.3455795344 15.8361052706 5.4162620976 
Li 5.3455795344 15.8361052706 16.136261990399998 
Li 5.3455795344 15.8361052706 26.856261883199995 
Li 5.3455795344 26.589438818999998 5.4162620976 
Li 5.3455795344 26.589438818999998 16.136261990399998 
Li 5.3455795344 26.589438818999998 26.856261883199995 
Li 15.935579428499999 5.0827720447999996 5.4162620976 
Li 15.935579428499999 5.0827720447999996 16.136261990399998 
Li 15.935579428499999 5.0827720447999996 26.856261883199995 
Li 15.935579428499999 15.8361052706 5.4162620976 
Li 15.935579428499999 15.8361052706 16.136261990399998 
Li 15.935579428499999 15.8361052706 26.856261883199995 
Li 15.935579428499999 26.589438818999998 5.4162620976 
Li 15.935579428499999 26.589438818999998 16.136261990399998 
Li 15.935579428499999 26.589438818999998 26.856261883199995 
Li 26.525579322600002 5.0827720447999996 5.4162620976 
Li 26.525579322600002 5.0827720447999996 16.136261990399998 
Li 26.525579322600002 5.0827720447999996 26.856261883199995 
Li 26.525579322600002 15.8361052706 5.4162620976 
Li 26.525579322600002 15.8361052706 16.136261990399998 
Li 26.525579322600002 15.8361052706 26.856261883199995 
Li 26.525579322600002 26.589438818999998 5.4162620976 
Li 26.525579322600002 26.589438818999998 16.136261990399998 
Li 26.525579322600002 26.589438818999998 26.856261883199995 
Li 5.2322893029 8.0696154382 8.034551131199999 
Li 5.2322893029 8.0696154382 18.7545513456 
Li 5.2322893029 8.0696154382 29.474551238399997 
Li 5.2322893029 18.822948986599997 8.034551131199999 
Li 5.2322893029 18.822948986599997 18.7545513456 
Li 5.2322893029 18.822948986599997 29.474551238399997 
Li 5.2322893029 29.5762822124 8.034551131199999 
Li 5.2322893029 29.5762822124 18.7545513456 
Li 5.2322893029 29.5762822124 29.474551238399997 
Li 15.822289514700001 8.0696154382 8.034551131199999 
Li 15.822289514700001 8.0696154382 18.7545513456 
Li 15.822289514700001 8.0696154382 29.474551238399997 
Li 15.822289514700001 18.822948986599997 8.034551131199999 
Li 15.822289514700001 18.822948986599997 18.7545513456 
Li 15.822289514700001 18.822948986599997 29.474551238399997 
Li 15.822289514700001 29.5762822124 8.034551131199999 
Li 15.822289514700001 29.5762822124 18.7545513456 
Li 15.822289514700001 29.5762822124 29.474551238399997 
Li 26.4122894088 8.0696154382 8.034551131199999 
Li 26.4122894088 8.0696154382 18.7545513456 
Li 26.4122894088 8.0696154382 29.474551238399997 
Li 26.4122894088 18.822948986599997 8.034551131199999 
Li 26.4122894088 18.822948986599997 18.7545513456 
Li 26.4122894088 18.822948986599997 29.474551238399997 
Li 26.4122894088 29.5762822124 8.034551131199999 
Li 26.4122894088 29.5762822124 18.7545513456 
Li 26.4122894088 29.5762822124 29.474551238399997 
Li 2.5191945252 8.182542213399998 10.541313787199998 
Li 2.5191945252 8.182542213399998 21.26131368 
Li 2.5191945252 8.182542213399998 31.981313572799998 
Li 2.5191945252 18.9358754392 10.541313787199998 
Li 2.5191945252 18.9358754392 21.26131368 
Li 2.5191945252 18.9358754392 31.981313572799998 
Li 2.5191945252 29.689208665 10.541313787199998 
Li 2.5191945252 29.689208665 21.26131368 
Li 2.5191945252 29.689208665 31.981313572799998 
Li 13.1091944193 8.182542213399998 10.541313787199998 
Li 13.1091944193 8.182542213399998 21.26131368 
Li 13.1091944193 8.182542213399998 31.981313572799998 
Li 13.1091944193 18.9358754392 10.541313787199998 
Li 13.1091944193 18.9358754392 21.26131368 
Li 13.1091944193 18.9358754392 31.981313572799998 
Li 13.1091944193 29.689208665 10.541313787199998 
Li 13.1091944193 29.689208665 21.26131368 
Li 13.1091944193 29.689208665 31.981313572799998 
Li 23.6991943134 8.182542213399998 10.541313787199998 
Li 23.6991943134 8.182542213399998 21.26131368 
Li 23.6991943134 8.182542213399998 31.981313572799998 
Li 23.6991943134 18.9358754392 10.541313787199998 
Li 23.6991943134 18.9358754392 21.26131368 
Li 23.6991943134 18.9358754392 31.981313572799998 
Li 23.6991943134 29.689208665 10.541313787199998 
Li 23.6991943134 29.689208665 21.26131368 
Li 23.6991943134 29.689208665 31.981313572799998 
Li 2.7616498218000003 2.688117729 5.2978988256 
Li 2.7616498218000003 2.688117729 16.017898718399998 
Li 2.7616498218000003 2.688117729 26.7378986112 
Li 2.7616498218000003 13.441450954799999 5.2978988256 
Li 2.7616498218000003 13.441450954799999 16.017898718399998 
Li 2.7616498218000003 13.441450954799999 26.7378986112 
Li 2.7616498218000003 24.1947841806 5.2978988256 
Li 2.7616498218000003 24.1947841806 16.017898718399998 
Li 2.7616498218000003 24.1947841806 26.7378986112 
Li 13.3516500336 2.688117729 5.2978988256 
Li 13.3516500336 2.688117729 16.017898718399998 
Li 13.3516500336 2.688117729 26.7378986112 
Li 13.3516500336 13.441450954799999 5.2978988256 
Li 13.3516500336 13.441450954799999 16.017898718399998 
Li 13.3516500336 13.441450954799999 26.7378986112 
Li 13.3516500336 24.1947841806 5.2978988256 
Li 13.3516500336 24.1947841806 16.017898718399998 
Li 13.3516500336 24.1947841806 26.7378986112 
Li 23.9416499277 2.688117729 5.2978988256 
Li 23.9416499277 2.688117729 16.017898718399998 
Li 23.9416499277 2.688117729 26.7378986112 
Li 23.9416499277 13.441450954799999 5.2978988256 
Li 23.9416499277 13.441450954799999 16.017898718399998 
Li 23.9416499277 13.441450954799999 26.7378986112 
Li 23.9416499277 24.1947841806 5.2978988256 
Li 23.9416499277 24.1947841806 16.017898718399998 
Li 23.9416499277 24.1947841806 26.7378986112 
Li 8.0578597293 2.7952941592 0.17703083039999998 
Li 8.0578597293 2.7952941592 10.897030723199999 
Li 8.0578597293 2.7952941592 21.617030615999997 
Li 8.0578597293 13.548627385 0.17703083039999998 
Li 8.0578597293 13.548627385 10.897030723199999 
Li 8.0578597293 13.548627385 21.617030615999997 
Li 8.0578597293 24.3019609334 0.17703083039999998 
Li 8.0578597293 24.3019609334 10.897030723199999 
Li 8.0578597293 24.3019609334 21.617030615999997 
Li 18.6478599411 2.7952941592 0.17703083039999998 
Li 18.6478599411 2.7952941592 10.897030723199999 
Li 18.6478599411 2.7952941592 21.617030615999997 
Li 18.6478599411 13.548627385 0.17703083039999998 
Li 18.6478599411 13.548627385 10.897030723199999 
Li 18.6478599411 13.548627385 21.617030615999997 
Li 18.6478599411 24.3019609334 0.17703083039999998 
Li 18.6478599411 24.3019609334 10.897030723199999 
Li 18.6478599411 24.3019609334 21.617030615999997 
Li 29.2378598352 2.7952941592 0.17703083039999998 
Li 29.2378598352 2.7952941592 10.897030723199999 
Li 29.2378598352 2.7952941592 21.617030615999997 
Li 29.2378598352 13.548627385 0.17703083039999998 
Li 29.2378598352 13.548627385 10.897030723199999 
Li 29.2378598352 13.548627385 21.617030615999997 
Li 29.2378598352 24.3019609334 0.17703083039999998 
Li 29.2378598352 24.3019609334 10.897030723199999 
Li 29.2378598352 24.3019609334 21.617030615999997 
Li 5.3583542514 2.689414581 2.8023493967999995 
Li 5.3583542514 2.689414581 13.5223496112 
Li 5.3583542514 2.689414581 24.242349504 
Li 5.3583542514 13.4427481294 2.8023493967999995 
Li 5.3583542514 13.4427481294 13.5223496112 
Li 5.3583542514 13.4427481294 24.242349504 
Li 5.3583542514 24.1960813552 2.8023493967999995 
Li 5.3583542514 24.1960813552 13.5223496112 
Li 5.3583542514 24.1960813552 24.242349504 
Li 15.948354145500002 2.689414581 2.8023493967999995 
Li 15.948354145500002 2.689414581 13.5223496112 
Li 15.948354145500002 2.689414581 24.242349504 
Li 15.948354145500002 13.4427481294 2.8023493967999995 
Li 15.948354145500002 13.4427481294 13.5223496112 
Li 15.948354145500002 13.4427481294 24.242349504 
Li 15.948354145500002 24.1960813552 2.8023493967999995 
Li 15.948354145500002 24.1960813552 13.5223496112 
Li 15.948354145500002 24.1960813552 24.242349504 
Li 26.5383540396 2.689414581 2.8023493967999995 
Li 26.5383540396 2.689414581 13.5223496112 
Li 26.5383540396 2.689414581 24.242349504 
Li 26.5383540396 13.4427481294 2.8023493967999995 
Li 26.5383540396 13.4427481294 13.5223496112 
Li 26.5383540396 13.4427481294 24.242349504 
Li 26.5383540396 24.1960813552 2.8023493967999995 
Li 26.5383540396 24.1960813552 13.5223496112 
Li 26.5383540396 24.1960813552 24.242349504 
Li 10.5637804308 8.123879661599998 2.6028406559999997 
Li 10.5637804308 8.123879661599998 13.322840548799999 
Li 10.5637804308 8.123879661599998 24.042840441599996 
Li 10.5637804308 18.8772128874 2.6028406559999997 
Li 10.5637804308 18.8772128874 13.322840548799999 
Li 10.5637804308 18.8772128874 24.042840441599996 
Li 10.5637804308 29.6305464358 2.6028406559999997 
Li 10.5637804308 29.6305464358 13.322840548799999 
Li 10.5637804308 29.6305464358 24.042840441599996 
Li 21.153780324899998 8.123879661599998 2.6028406559999997 
Li 21.153780324899998 8.123879661599998 13.322840548799999 
Li 21.153780324899998 8.123879661599998 24.042840441599996 
Li 21.153780324899998 18.8772128874 2.6028406559999997 
Li 21.153780324899998 18.8772128874 13.322840548799999 
Li 21.153780324899998 18.8772128874 24.042840441599996 
Li 21.153780324899998 29.6305464358 2.6028406559999997 
Li 21.153780324899998 29.6305464358 13.322840548799999 
Li 21.153780324899998 29.6305464358 24.042840441599996 
Li 31.7437805367 8.123879661599998 2.6028406559999997 
Li 31.7437805367 8.123879661599998 13.322840548799999 
Li 31.7437805367 8.123879661599998 24.042840441599996 
Li 31.7437805367 18.8772128874 2.6028406559999997 
Li 31.7437805367 18.8772128874 13.322840548799999 
Li 31.7437805367 18.8772128874 24.042840441599996 
Li 31.7437805367 29.6305464358 2.6028406559999997 
Li 31.7437805367 29.6305464358 13.322840548799999 
Li 31.7437805367 29.6305464358 24.042840441599996 
Li 7.9376140917 8.070103532 5.4086308512 
Li 7.9376140917 8.070103532 16.128630744 
Li 7.9376140917 8.070103532 26.8486306368 
Li 7.9376140917 18.8234367578 5.4086308512 
Li 7.9376140917 18.8234367578 16.128630744 
Li 7.9376140917 18.8234367578 26.8486306368 
Li 7.9376140917 29.5767703062 5.4086308512 
Li 7.9376140917 29.5767703062 16.128630744 
Li 7.9376140917 29.5767703062 26.8486306368 
Li 18.5276143035 8.070103532 5.4086308512 
Li 18.5276143035 8.070103532 16.128630744 
Li 18.5276143035 8.070103532 26.8486306368 
Li 18.5276143035 18.8234367578 5.4086308512 
Li 18.5276143035 18.8234367578 16.128630744 
Li 18.5276143035 18.8234367578 26.8486306368 
Li 18.5276143035 29.5767703062 5.4086308512 
Li 18.5276143035 29.5767703062 16.128630744 
Li 18.5276143035 29.5767703062 26.8486306368 
Li 29.1176141976 8.070103532 5.4086308512 
Li 29.1176141976 8.070103532 16.128630744 
Li 29.1176141976 8.070103532 26.8486306368 
Li 29.1176141976 18.8234367578 5.4086308512 
Li 29.1176141976 18.8234367578 16.128630744 
Li 29.1176141976 18.8234367578 26.8486306368 
Li 29.1176141976 29.5767703062 5.4086308512 
Li 29.1176141976 29.5767703062 16.128630744 
Li 29.1176141976 29.5767703062 26.8486306368 
Li 2.6522202807000004 10.5744831406 8.0506382064 
Li 2.6522202807000004 10.5744831406 18.7706380992 
Li 2.6522202807000004 10.5744831406 29.490638313599998 
Li 2.6522202807000004 21.327816366399997 8.0506382064 
Li 2.6522202807000004 21.327816366399997 18.7706380992 
Li 2.6522202807000004 21.327816366399997 29.490638313599998 
Li 2.6522202807000004 32.0811495922 8.0506382064 
Li 2.6522202807000004 32.0811495922 18.7706380992 
Li 2.6522202807000004 32.0811495922 29.490638313599998 
Li 13.2422201748 10.5744831406 8.0506382064 
Li 13.2422201748 10.5744831406 18.7706380992 
Li 13.2422201748 10.5744831406 29.490638313599998 
Li 13.2422201748 21.327816366399997 8.0506382064 
Li 13.2422201748 21.327816366399997 18.7706380992 
Li 13.2422201748 21.327816366399997 29.490638313599998 
Li 13.2422201748 32.0811495922 8.0506382064 
Li 13.2422201748 32.0811495922 18.7706380992 
Li 13.2422201748 32.0811495922 29.490638313599998 
Li 23.8322200689 10.5744831406 8.0506382064 
Li 23.8322200689 10.5744831406 18.7706380992 
Li 23.8322200689 10.5744831406 29.490638313599998 
Li 23.8322200689 21.327816366399997 8.0506382064 
Li 23.8322200689 21.327816366399997 18.7706380992 
Li 23.8322200689 21.327816366399997 29.490638313599998 
Li 23.8322200689 32.0811495922 8.0506382064 
Li 23.8322200689 32.0811495922 18.7706380992 
Li 23.8322200689 32.0811495922 29.490638313599998 
Li 8.0356661604 0.3733733688 2.6832950063999994 
Li 8.0356661604 0.3733733688 13.403294899199999 
Li 8.0356661604 0.3733733688 24.123294791999996 
Li 8.0356661604 11.1267069172 2.6832950063999994 
Li 8.0356661604 11.1267069172 13.403294899199999 
Li 8.0356661604 11.1267069172 24.123294791999996 
Li 8.0356661604 21.880040143 2.6832950063999994 
Li 8.0356661604 21.880040143 13.403294899199999 
Li 8.0356661604 21.880040143 24.123294791999996 
Li 18.625666054499998 0.3733733688 2.6832950063999994 
Li 18.625666054499998 0.3733733688 13.403294899199999 
Li 18.625666054499998 0.3733733688 24.123294791999996 
Li 18.625666054499998 11.1267069172 2.6832950063999994 
Li 18.625666054499998 11.1267069172 13.403294899199999 
Li 18.625666054499998 11.1267069172 24.123294791999996 
Li 18.625666054499998 21.880040143 2.6832950063999994 
Li 18.625666054499998 21.880040143 13.403294899199999 
Li 18.625666054499998 21.880040143 24.123294791999996 
Li 29.215665948599998 0.3733733688 2.6832950063999994 
Li 29.215665948599998 0.3733733688 13.403294899199999 
Li 29.215665948599998 0.3733733688 24.123294791999996 
Li 29.215665948599998 11.1267069172 2.6832950063999994 
Li 29.215665948599998 11.1267069172 13.403294899199999 
Li 29.215665948599998 11.1267069172 24.123294791999996 
Li 29.215665948599998 21.880040143 2.6832950063999994 
Li 29.215665948599998 21.880040143 13.403294899199999 
Li 29.215665948599998 21.880040143 24.123294791999996 
Li 0.0591865569 5.552792825 0.05939405279999999 
Li 0.0591865569 5.552792825 10.779393945599999 
Li 0.0591865569 5.552792825 21.499394159999998 
Li 0.0591865569 16.306126373399998 0.05939405279999999 
Li 0.0591865569 16.306126373399998 10.779393945599999 
Li 0.0591865569 16.306126373399998 21.499394159999998 
Li 0.0591865569 27.0594595992 0.05939405279999999 
Li 0.0591865569 27.0594595992 10.779393945599999 
Li 0.0591865569 27.0594595992 21.499394159999998 
Li 10.649186451 5.552792825 0.05939405279999999 
Li 10.649186451 5.552792825 10.779393945599999 
Li 10.649186451 5.552792825 21.499394159999998 
Li 10.649186451 16.306126373399998 0.05939405279999999 
Li 10.649186451 16.306126373399998 10.779393945599999 
Li 10.649186451 16.306126373399998 21.499394159999998 
Li 10.649186451 27.0594595992 0.05939405279999999 
Li 10.649186451 27.0594595992 10.779393945599999 
Li 10.649186451 27.0594595992 21.499394159999998 
Li 21.2391863451 5.552792825 0.05939405279999999 
Li 21.2391863451 5.552792825 10.779393945599999 
Li 21.2391863451 5.552792825 21.499394159999998 
Li 21.2391863451 16.306126373399998 0.05939405279999999 
Li 21.2391863451 16.306126373399998 10.779393945599999 
Li 21.2391863451 16.306126373399998 21.499394159999998 
Li 21.2391863451 27.0594595992 0.05939405279999999 
Li 21.2391863451 27.0594595992 10.779393945599999 
Li 21.2391863451 27.0594595992 21.499394159999998 
Sc 2.6439623046 5.3187745912 2.6876060543999998 
Sc 2.6439623046 5.3187745912 13.407606268799999 
Sc 2.6439623046 5.3187745912 24.1276061616 
Sc 2.6439623046 16.072107817 2.6876060543999998 
Sc 2.6439623046 16.072107817 13.407606268799999 
Sc 2.6439623046 16.072107817 24.1276061616 
Sc 2.6439623046 26.825441365399996 2.6876060543999998 
Sc 2.6439623046 26.825441365399996 13.407606268799999 
Sc 2.6439623046 26.825441365399996 24.1276061616 
Sc 13.2339621987 5.3187745912 2.6876060543999998 
Sc 13.2339621987 5.3187745912 13.407606268799999 
Sc 13.2339621987 5.3187745912 24.1276061616 
Sc 13.2339621987 16.072107817 2.6876060543999998 
Sc 13.2339621987 16.072107817 13.407606268799999 
Sc 13.2339621987 16.072107817 24.1276061616 
Sc 13.2339621987 26.825441365399996 2.6876060543999998 
Sc 13.2339621987 26.825441365399996 13.407606268799999 
Sc 13.2339621987 26.825441365399996 24.1276061616 
Sc 23.823962410500002 5.3187745912 2.6876060543999998 
Sc 23.823962410500002 5.3187745912 13.407606268799999 
Sc 23.823962410500002 5.3187745912 24.1276061616 
Sc 23.823962410500002 16.072107817 2.6876060543999998 
Sc 23.823962410500002 16.072107817 13.407606268799999 
Sc 23.823962410500002 16.072107817 24.1276061616 
Sc 23.823962410500002 26.825441365399996 2.6876060543999998 
Sc 23.823962410500002 26.825441365399996 13.407606268799999 
Sc 23.823962410500002 26.825441365399996 24.1276061616 
Sc 7.9439420403 5.437548168799999 8.0385518352 
Sc 7.9439420403 5.437548168799999 18.758551727999997 
Sc 7.9439420403 5.437548168799999 29.478551620799994 
Sc 7.9439420403 16.1908813946 8.0385518352 
Sc 7.9439420403 16.1908813946 18.758551727999997 
Sc 7.9439420403 16.1908813946 29.478551620799994 
Sc 7.9439420403 26.9442146204 8.0385518352 
Sc 7.9439420403 26.9442146204 18.758551727999997 
Sc 7.9439420403 26.9442146204 29.478551620799994 
Sc 18.5339419344 5.437548168799999 8.0385518352 
Sc 18.5339419344 5.437548168799999 18.758551727999997 
Sc 18.5339419344 5.437548168799999 29.478551620799994 
Sc 18.5339419344 16.1908813946 8.0385518352 
Sc 18.5339419344 16.1908813946 18.758551727999997 
Sc 18.5339419344 16.1908813946 29.478551620799994 
Sc 18.5339419344 26.9442146204 8.0385518352 
Sc 18.5339419344 26.9442146204 18.758551727999997 
Sc 18.5339419344 26.9442146204 29.478551620799994 
Sc 29.1239418285 5.437548168799999 8.0385518352 
Sc 29.1239418285 5.437548168799999 18.758551727999997 
Sc 29.1239418285 5.437548168799999 29.478551620799994 
Sc 29.1239418285 16.1908813946 8.0385518352 
Sc 29.1239418285 16.1908813946 18.758551727999997 
Sc 29.1239418285 16.1908813946 29.478551620799994 
Sc 29.1239418285 26.9442146204 8.0385518352 
Sc 29.1239418285 26.9442146204 18.758551727999997 
Sc 29.1239418285 26.9442146204 29.478551620799994 
Sc 0.0559288611 2.6875999559999997 8.157065937599999 
Sc 0.0559288611 2.6875999559999997 18.877065830399996 
Sc 0.0559288611 2.6875999559999997 29.5970657232 
Sc 0.0559288611 13.440933504399998 8.157065937599999 
Sc 0.0559288611 13.440933504399998 18.877065830399996 
Sc 0.0559288611 13.440933504399998 29.5970657232 
Sc 0.0559288611 24.1942667302 8.157065937599999 
Sc 0.0559288611 24.1942667302 18.877065830399996 
Sc 0.0559288611 24.1942667302 29.5970657232 
Sc 10.6459287552 2.6875999559999997 8.157065937599999 
Sc 10.6459287552 2.6875999559999997 18.877065830399996 
Sc 10.6459287552 2.6875999559999997 29.5970657232 
Sc 10.6459287552 13.440933504399998 8.157065937599999 
Sc 10.6459287552 13.440933504399998 18.877065830399996 
Sc 10.6459287552 13.440933504399998 29.5970657232 
Sc 10.6459287552 24.1942667302 8.157065937599999 
Sc 10.6459287552 24.1942667302 18.877065830399996 
Sc 10.6459287552 24.1942667302 29.5970657232 
Sc 21.2359286493 2.6875999559999997 8.157065937599999 
Sc 21.2359286493 2.6875999559999997 18.877065830399996 
Sc 21.2359286493 2.6875999559999997 29.5970657232 
Sc 21.2359286493 13.440933504399998 8.157065937599999 
Sc 21.2359286493 13.440933504399998 18.877065830399996 
Sc 21.2359286493 13.440933504399998 29.5970657232 
Sc 21.2359286493 24.1942667302 8.157065937599999 
Sc 21.2359286493 24.1942667302 18.877065830399996 
Sc 21.2359286493 24.1942667302 29.5970657232 
Sc 5.2423368831 0.058558352 10.666828799999998 
Sc 5.2423368831 0.058558352 21.386828692799995 
Sc 5.2423368831 0.058558352 32.1068285856 
Sc 5.2423368831 10.811891577799999 10.666828799999998 
Sc 5.2423368831 10.811891577799999 21.386828692799995 
Sc 5.2423368831 10.811891577799999 32.1068285856 
Sc 5.2423368831 21.5652248036 10.666828799999998 
Sc 5.2423368831 21.5652248036 21.386828692799995 
Sc 5.2423368831 21.5652248036 32.1068285856 
Sc 15.8323367772 0.058558352 10.666828799999998 
Sc 15.8323367772 0.058558352 21.386828692799995 
Sc 15.8323367772 0.058558352 32.1068285856 
Sc 15.8323367772 10.811891577799999 10.666828799999998 
Sc 15.8323367772 10.811891577799999 21.386828692799995 
Sc 15.8323367772 10.811891577799999 32.1068285856 
Sc 15.8323367772 21.5652248036 10.666828799999998 
Sc 15.8323367772 21.5652248036 21.386828692799995 
Sc 15.8323367772 21.5652248036 32.1068285856 
Sc 26.4223366713 0.058558352 10.666828799999998 
Sc 26.4223366713 0.058558352 21.386828692799995 
Sc 26.4223366713 0.058558352 32.1068285856 
Sc 26.4223366713 10.811891577799999 10.666828799999998 
Sc 26.4223366713 10.811891577799999 21.386828692799995 
Sc 26.4223366713 10.811891577799999 32.1068285856 
Sc 26.4223366713 21.5652248036 10.666828799999998 
Sc 26.4223366713 21.5652248036 21.386828692799995 
Sc 26.4223366713 21.5652248036 32.1068285856 
Sc 10.5349043601 10.697216310599998 5.30168052 
Sc 10.5349043601 10.697216310599998 16.0216804128 
Sc 10.5349043601 10.697216310599998 26.7416803056 
Sc 10.5349043601 21.450549859 5.30168052 
Sc 10.5349043601 21.450549859 16.0216804128 
Sc 10.5349043601 21.450549859 26.7416803056 
Sc 10.5349043601 32.2038830848 5.30168052 
Sc 10.5349043601 32.2038830848 16.0216804128 
Sc 10.5349043601 32.2038830848 26.7416803056 
Sc 21.124904254199997 10.697216310599998 5.30168052 
Sc 21.124904254199997 10.697216310599998 16.0216804128 
Sc 21.124904254199997 10.697216310599998 26.7416803056 
Sc 21.124904254199997 21.450549859 5.30168052 
Sc 21.124904254199997 21.450549859 16.0216804128 
Sc 21.124904254199997 21.450549859 26.7416803056 