LAMMPS (7 Aug 2019)
  using 1 OpenMP thread(s) per MPI task

# Input written to comply with LAMMPS 2017-08-11 00:00:00

# Atomic Configuration
units           metal
boundary        p p p
box             tilt large
atom_style      charge
read_data       monoclinic_9x9x9.lmp
  triclinic box = (0 0 0) to (92.5227 92.8198 92.5839) with tilt (-0.0952302 -0.293317 -0.265415)
  4 by 8 by 5 MPI processor grid
  reading atoms ...
  39366 atoms
  read_data CPU = 0.0733409 secs
group           lithium type 1
12393 atoms in group lithium
group           scandium type 2
3645 atoms in group scandium
group           chloride type 3
23328 atoms in group chloride
variable        T1 equal 400
variable        dt equal 0.001

# Potential Setup
pair_style      buck/coul/long 12.0
pair_coeff      * * 0.0 1.0 0.0
pair_coeff      1 1    360.530000  0.161000   0.000000 # Li Li
pair_coeff      1 3    421.040000  0.344000   0.000000 # Li Cl
pair_coeff      3 3   1227.200000  0.321000  14.530000 # Cl Cl
pair_coeff      2 3  12131.350000  0.250700   0.000000 # Sc Cl

kspace_style    pppm 1e-05

# General Setup
timestep        ${dt}
timestep        0.001

# Thermodynamic Information Output
thermo_style    custom step temp epair emol etotal press lx ly lz fmax cpu cpuremain
thermo          1000

# Intial Atom Velocity
velocity        all create ${T1} 226196 dist gaussian rot yes
velocity        all create 400 226196 dist gaussian rot yes

# Stage 0: npt_equilibriation
restart         0
fix             int all npt aniso 1.0 1.0 $(1000*dt) temp ${T1} ${T1} $(100*dt)
fix             int all npt aniso 1.0 1.0 1 temp ${T1} ${T1} $(100*dt)
fix             int all npt aniso 1.0 1.0 1 temp 400 ${T1} $(100*dt)
fix             int all npt aniso 1.0 1.0 1 temp 400 400 $(100*dt)
fix             int all npt aniso 1.0 1.0 1 temp 400 400 0.10000000000000000555
run             50000
PPPM initialization ...
  using 12-bit tables for long-range coulomb (../kspace.cpp:323)
  G vector (1/distance) = 0.265467
  grid = 81 81 81
  stencil order = 5
  estimated absolute RMS force accuracy = 0.000177575
  estimated relative force accuracy = 1.23319e-05
  using double precision MKL FFT
  3d grid and FFT values/proc = 10557 4374
Neighbor list info ...
  update every 1 steps, delay 10 steps, check yes
  max neighbors/atom: 2000, page size: 100000
  master list distance cutoff = 14
  ghost atom cutoff = 14
  binsize = 7, bins = 14 14 14
  1 neighbor lists, perpetual/occasional/extra = 1 0 0
  (1) pair buck/coul/long, perpetual
      attributes: half, newton on
      pair build: half/bin/newton/tri
      stencil: half/bin/3d/newton/tri
      bin: standard
Per MPI rank memory allocation (min/avg/max) = 4.199 | 4.267 | 4.689 Mbytes
Step Temp E_pair E_mol TotEng Press Lx Ly Lz Fmax CPU CPULeft 
       0          400   -266217.01            0   -264181.68   -54.837548    92.522657    92.819769    92.583922    2.7005784            0            0 
    1000    406.52521   -274154.64            0    -272086.1   -4.8807559    98.415291    98.756477    99.671556    3.5103316    6.8219199    334.27412 
    2000    398.62675    -274470.8            0   -272442.46   -54.435348    97.962554    99.531755    100.38517    3.7795575    13.860642    332.65543 
    3000    400.47485   -274618.62            0   -272580.87    139.77653    97.669527     100.0884    100.32586    3.4950448    20.470796    320.70915 
    4000    400.37096   -274695.34            0   -272658.13    24.148577    97.393523    100.54931    100.21156    3.2852065    27.039313    310.95211 
    5000    400.71704   -274743.38            0    -272704.4   -103.93839    97.227326    101.02275    100.14217    3.8132278    33.781003    304.02904 
    6000    400.77926    -274776.7            0   -272737.41    94.878837    97.026351    101.25637    100.07231    5.1776021    41.182033    302.00158 
    7000    400.50959   -274817.63            0    -272779.7   -200.68259    96.964166    101.47623    100.01251    3.7095771    47.645349    292.67858 
    8000    400.85846   -274859.65            0   -272819.95    118.38163    96.771561    101.75747    99.921036    3.7417823     54.56889    286.48668 
    9000    399.34374    -274875.2            0   -272843.21   -133.69089      96.7682    102.05097    99.796406     3.330442     61.09123     278.3045 
   10000    396.62976   -274917.78            0    -272899.6   -138.91656    96.757798    102.16143    99.603727    3.3729672    67.552234    270.20894 
   11000    402.67399   -274910.17            0   -272861.23    98.681946    96.613832    102.15515    99.645435    3.5723709    74.280006    263.35639 
   12000    397.97459   -274932.32            0    -272907.3   -121.10892    96.536829    102.29339    99.598153    3.5807116    81.485001    258.03584 
   13000    399.81746   -274949.85            0   -272915.45   -132.83045    96.551224     102.3232    99.604096    3.2730106    88.059324    250.63039 
   14000    402.16563   -274968.37            0   -272922.02   0.32129112    96.322601     102.3337     99.60326    3.6710154    95.041375    244.39211 
   15000     401.1538   -274986.14            0   -272944.94   -69.755523    96.334048    102.44388    99.630852    4.4483892     101.5171    236.87322 
   16000    398.77533   -274982.91            0   -272953.81    55.505728    96.359235    102.52207    99.453745    4.2943098    107.83919    229.15827 
   17000    397.97372   -274989.19            0   -272964.17    131.08716    96.386104    102.65284    99.261093    3.9759057    114.60522    222.46897 
   18000    400.51501   -275006.76            0   -272968.81    106.20842    96.337342    102.57092    99.296337    4.1191355    121.81396    216.55815 
   19000    397.84491   -275019.95            0   -272995.58    156.67027    96.215205    102.67919    99.287948    4.0831002    128.24231    209.23745 
   20000    401.24765   -275017.98            0    -272976.3   -31.055426    96.167632    102.67806    99.343345    3.3871009    135.08345    202.62518 
   21000    398.63432    -275039.2            0   -273010.82    405.66862    96.050014    102.47471    99.325652    4.1200534    141.84882    195.88647 
   22000    399.38733   -275030.51            0    -272998.3    100.59969    96.217824    102.51052    99.383053    3.4099518    148.28317    188.72404 
   23000    398.45641   -275062.85            0   -273035.38    62.653846    96.124274    102.70948    99.205987    3.9761912    155.11646    182.09324 
   24000    401.78881   -275045.47            0   -273001.04   -143.15883    96.136513    102.67503    99.259464    4.1157899    162.28114    175.80457 
   25000    397.59786   -275055.14            0   -273032.04    63.064978    96.052019    102.59223    99.247022     3.902748     168.8085     168.8085 
   26000    396.85254   -275046.37            0   -273027.05   -22.729491    96.081232    102.76273    99.237745    4.4581151      175.769    162.24831 
   27000    399.91992   -275076.66            0   -273041.74   -137.98227    96.135373    102.77776    99.148797    3.6398821    182.20097    155.20824 
   28000    401.00988    -275068.1            0   -273027.64     174.3717    96.231519    102.76373    98.981416    3.4860378    188.71457    148.27574 
   29000    400.15484    -275086.7            0   -273050.58   -28.410449    96.053221    102.88566    99.043846    3.4059148    195.59717    141.63933 
   30000    402.59661   -275089.44            0   -273040.89   -8.9849837    96.112876    102.79924      99.1151    3.8511075    202.67467    135.11645 
   31000    399.83149   -275107.49            0   -273073.01   -149.15999    96.088682    102.73864    99.251195    3.6656586    209.16685    128.19904 
   32000    398.12147   -275069.17            0    -273043.4   -232.78593     96.16567     102.8623    99.110783    3.5344691    216.10624    121.55976 
   33000    402.07366   -275091.47            0   -273045.59    59.027351    96.032957    102.87776    99.177505    3.8605334    222.54311    114.64342 
   34000    402.97151   -275118.77            0   -273068.31    -96.24603    96.010238    102.80266     99.11212    3.3842175    229.00969    107.76926 
   35000    402.58991   -275092.76            0   -273044.25    134.75032    96.069489    102.89005    99.104968    4.3577701    235.84534    101.07658 
   36000    398.63908   -275102.67            0   -273074.27   -141.67927    96.017278    102.98418    98.987542    3.4425322    242.88368    94.454767 
   37000    399.73227   -275082.87            0    -273048.9   -68.902867    96.014007    103.02877    99.000984    3.7272371    249.43217    87.638329 
   38000    399.72127   -275103.13            0   -273069.22   -19.382023    95.885888    103.00368    99.075456      3.41139    256.21613    80.910358 
   39000    401.51992    -275115.4            0   -273072.34   -16.279922    95.986009    102.93146    98.960039    3.5418717    262.62895    74.074832 
   40000    400.22468   -275105.54            0   -273069.07    13.011954    95.845474    103.08423    98.963938    3.4995021    269.10649    67.276622 
   41000    399.72799    -275122.5            0   -273088.56   -259.93698    95.816671    103.17633    98.872246    3.1814252    275.82921    60.547876 
   42000    404.65278   -275126.65            0   -273067.65    107.04206    95.755287    103.01422    98.905914    3.7643542    282.80119    53.866893 
   43000    400.06463   -275131.81            0   -273096.15   -9.9609683    95.815337    103.01522    98.864603    3.6839867    289.22185    47.082627 
   44000    400.86438   -275147.54            0   -273107.82    154.42275    95.755821    103.11945    98.869306    3.4587093    296.07651     40.37407 
   45000    399.58557   -275133.79            0   -273100.57   -42.009133    95.797896    103.03754    99.018835    3.4178838    302.49681    33.610756 
   46000     401.1772   -275132.92            0    -273091.6   -157.27022    95.780853    103.04725     99.03263    3.5938854    308.91754    26.862395 
   47000    399.93113   -275151.39            0   -273116.41    106.02176    95.935265    102.91911    98.993994    3.5546544     315.7731     20.15573 
   48000    399.01751   -275146.69            0   -273116.36   -4.0230348    95.925665    102.98548    98.827616    4.4929465    322.78589    13.449412 
   49000    400.45597   -275152.73            0   -273115.08   -66.312469     95.85589    103.02721    98.802579    3.2319106    329.41171    6.7226879 
   50000    398.12857   -275145.55            0   -273119.74    -49.29819    95.702039    103.11501    98.888863    3.7006481    336.20687            0 
Loop time of 336.207 on 160 procs for 50000 steps with 39366 atoms

Performance: 12.849 ns/day, 1.868 hours/ns, 148.718 timesteps/s
99.0% CPU use with 160 MPI tasks x 1 OpenMP threads

MPI task timing breakdown:
Section |  min time  |  avg time  |  max time  |%varavg| %total
---------------------------------------------------------------
Pair    | 71.293     | 76.459     | 87.207     |  26.1 | 22.74
Kspace  | 176.76     | 187.29     | 192.62     |  17.6 | 55.71
Neigh   | 2.7455     | 2.9245     | 3.1949     |   5.0 |  0.87
Comm    | 31.281     | 33.35      | 35         |  15.9 |  9.92
Output  | 0.0032737  | 0.0033089  | 0.0044854  |   0.2 |  0.00
Modify  | 26.476     | 28.095     | 35.226     |  28.6 |  8.36
Other   |            | 8.08       |            |       |  2.40

Nlocal:    246.037 ave 260 max 231 min
Histogram: 2 9 13 22 33 24 26 18 7 6
Nghost:    3842.21 ave 3913 max 3779 min
Histogram: 2 6 17 25 35 41 26 5 1 2
Neighs:    56905.5 ave 60475 max 52519 min
Histogram: 3 6 15 20 18 33 26 16 11 12

Total # of neighbors = 9104873
Ave neighs/atom = 231.288
Neighbor list builds = 1453
Dangerous builds = 0

# Stage 1: nvt_equilibriation
unfix           int
restart         0
fix             int all nvt temp ${T1} ${T1} $(100*dt)
fix             int all nvt temp 400 ${T1} $(100*dt)
fix             int all nvt temp 400 400 $(100*dt)
fix             int all nvt temp 400 400 0.10000000000000000555
run             6000000
PPPM initialization ...
  using 12-bit tables for long-range coulomb (../kspace.cpp:323)
  G vector (1/distance) = 0.266857
  grid = 90 90 90
  stencil order = 5
  estimated absolute RMS force accuracy = 0.000140058
  estimated relative force accuracy = 9.72646e-06
  using double precision MKL FFT
  3d grid and FFT values/proc = 13050 4968
Per MPI rank memory allocation (min/avg/max) = 4.418 | 4.521 | 4.882 Mbytes
Step Temp E_pair E_mol TotEng Press Lx Ly Lz Fmax CPU CPULeft 
   50000    398.12857    -275145.6            0   -273119.79   -49.923119    95.702039    103.11501    98.888863    3.7003055            0            0 
   51000     401.7299   -275142.11            0   -273097.98    171.85567    95.702039    103.11501    98.888863    3.9088919    6.4461021    38670.172 
   52000    400.34115   -275152.96            0    -273115.9    -44.10724    95.702039    103.11501    98.888863    3.8709386    13.042678    39114.995 
   53000    400.76026   -275160.66            0   -273121.46    37.778776    95.702039    103.11501    98.888863    3.8255327    19.865998    39712.132 
   54000    399.10837   -275136.28            0   -273105.49   -146.70192    95.702039    103.11501    98.888863    3.9129764    26.784172    40149.475 
   55000    399.72179   -275155.03            0   -273121.11     1.580207    95.702039    103.11501    98.888863    3.4931423    33.358232    39996.521 
   56000    399.14152   -275161.21            0   -273130.25    172.69918    95.702039    103.11501    98.888863    3.5365578    40.152738    40112.586 
   57000    398.92503   -275169.78            0   -273139.92   -75.270189    95.702039    103.11501    98.888863    3.8198759     46.74698    40022.094 
   58000    398.35438   -275156.56            0    -273129.6     48.19011    95.702039    103.11501    98.888863    3.8118777    53.260544    39892.148 
   59000     399.6065   -275183.49            0   -273150.16    29.153959    95.702039    103.11501    98.888863    3.6676074    60.096926     40004.52 
   60000      399.121   -275163.13            0   -273132.27   -154.54206    95.702039    103.11501    98.888863    3.7949182    66.977107    40119.288 
   61000     402.0226   -275166.54            0   -273120.92   -178.47225    95.702039    103.11501    98.888863    3.5699848     73.55378     40046.69 
   62000    394.28838   -275170.08            0   -273163.81    -190.1492    95.702039    103.11501    98.888863    4.0121309     80.42476    40131.956 
   63000    401.46781   -275169.33            0   -273126.53   -285.30093    95.702039    103.11501    98.888863    3.6356249    87.081351    40104.312 
   64000     401.2335   -275161.81            0    -273120.2   -10.623895    95.702039    103.11501    98.888863    3.1653139    93.495045     39975.81 
   65000    398.64273    -275175.7            0   -273147.27   -438.52081    95.702039    103.11501    98.888863    3.8143512    100.34719    40038.529 
   66000    398.47047   -275179.69            0   -273152.14   -378.74114    95.702039    103.11501    98.888863    3.5527603    107.25797     40114.48 
   67000    400.63627   -275168.08            0   -273129.51   -166.38892    95.702039    103.11501    98.888863    3.8240984    113.80199    40051.607 
   68000     401.3222   -275199.58            0   -273157.52   -116.37708    95.702039    103.11501    98.888863    4.1579391     120.6233    40087.143 
   69000    399.30881   -275186.93            0   -273155.11   -168.78495    95.702039    103.11501    98.888863      3.71415    127.09855    40009.287 
   70000    400.89779    -275171.1            0   -273131.21   -307.36973    95.702039    103.11501    98.888863    3.8388827    133.60617    39948.246 
   71000    400.57157   -275183.12            0   -273144.88   -230.49158    95.702039    103.11501    98.888863    3.6095275    140.58553    40026.709 
   72000    398.81677    -275187.5            0   -273158.19   -195.78976    95.702039    103.11501    98.888863    3.6834612    147.48133    40074.699 
   73000    402.16793   -275193.09            0   -273146.73   -343.20137    95.702039    103.11501    98.888863    3.1656826     154.0828     40041.43 
   74000    401.81005   -275170.89            0   -273126.35   -50.688581    95.702039    103.11501    98.888863    3.7526962    160.89142    40061.964 
   75000    401.73011   -275199.77            0   -273155.64   -296.74993    95.702039    103.11501    98.888863    3.8028233    167.33399    39992.823 
   76000     402.7045   -275187.89            0    -273138.8   -377.14871    95.702039    103.11501    98.888863     3.531645    173.91566    39960.467 
   77000    399.22511   -275198.19            0    -273166.8   -284.74684    95.702039    103.11501    98.888863    3.9437815    180.87633    40013.863 
   78000    400.72585   -275186.28            0   -273147.26   -427.53563    95.702039    103.11501    98.888863    3.2431859    187.63492    40019.848 
   79000     399.5279   -275187.94            0   -273155.01    -389.1028    95.702039    103.11501    98.888863    3.6754916     194.1767    39980.314 
   80000    401.10648   -275182.64            0   -273141.68   -303.39095    95.702039    103.11501    98.888863    3.2612903    200.99236     39997.48 
   81000    398.22496   -275202.27            0   -273175.97   -403.09294    95.702039    103.11501    98.888863    3.6774213    207.46947    39947.913 
   82000    401.23617   -275189.68            0   -273148.06   -206.53969    95.702039    103.11501    98.888863    3.6830881    214.00133    39911.248 
   83000    402.61227   -275201.71            0   -273153.08   -237.84834    95.702039    103.11501    98.888863    3.6083175    220.99832    39960.515 
   84000    400.35846   -275197.58            0   -273160.43   -352.86078    95.702039    103.11501    98.888863    4.1974543    227.86241    39983.151 
   85000    399.18612   -275197.06            0   -273165.87   -285.69586    95.702039    103.11501    98.888863    4.0051142     234.4689      39960.2 
   86000    399.54235   -275204.49            0   -273171.48   -259.24344    95.702039    103.11501    98.888863    3.6903384    241.35549    39984.559 
   87000    402.15905   -275219.23            0   -273172.92   -212.34602    95.702039    103.11501    98.888863     3.865146    247.90754    39953.315 
   88000    401.88543    -275205.8            0   -273160.88   -213.90326    95.702039    103.11501    98.888863     3.554543    254.34349    39905.154 
   89000    399.03478   -275206.75            0   -273176.33   -235.14632    95.702039    103.11501    98.888863    3.5002173    261.44277    39960.522 
   90000    400.30432   -275211.41            0   -273174.53   -222.24038    95.702039    103.11501    98.888863    3.4519052    268.21934    39964.682 
   91000    400.78038   -275197.82            0   -273158.52    -278.3386    95.702039    103.11501    98.888863    3.5370235    274.86279     39948.96 
   92000    401.05188   -275193.34            0   -273152.66   -436.13802    95.702039    103.11501    98.888863    4.1015622    281.57163    39942.947 
   93000    401.75017   -275218.87            0   -273174.64   -327.98144    95.702039    103.11501    98.888863    3.8172627    288.04202    39903.867 
   94000    399.65382   -275226.32            0   -273192.75   -379.21031    95.702039    103.11501    98.888863    4.2973684    294.53428    39869.232 
   95000    399.18425   -275211.06            0   -273179.88    -421.4889    95.702039    103.11501    98.888863    3.6766911    301.60472    39912.358 
   96000    397.95036   -275219.13            0   -273194.23   -477.15352    95.702039    103.11501    98.888863     3.228072    308.27942     39902.08 
   97000    399.12561   -275206.89            0      -273176    -697.1065    95.702039    103.11501    98.888863    3.7665441    314.88406    39883.082 
   98000    399.25119   -275222.18            0   -273190.66   -251.32382    95.702039    103.11501    98.888863    3.8253895     321.6201    39880.893 
   99000    400.34747   -275217.64            0   -273180.54   -306.20787    95.702039    103.11501    98.888863    3.6031987    328.14431    39852.792 
  100000    400.12153   -275218.04            0   -273182.09   -326.93945    95.702039    103.11501    98.888863    3.2295604    334.68039    39826.967 
  101000     397.6525   -275235.65            0   -273212.26   -448.81826    95.702039    103.11501    98.888863    3.5507565    341.79676    39869.587 
  102000    399.99575   -275204.68            0   -273169.37   -343.36029    95.702039    103.11501    98.888863    3.5841519    348.52507    39865.907 
  103000    396.87219   -275213.09            0   -273193.68   -617.44181    95.702039    103.11501    98.888863    4.0026365    355.09636    39844.492 
  104000    398.70543   -275224.28            0   -273195.54   -551.50813    95.702039    103.11501    98.888863    4.0188327    361.89391    39848.541 
  105000    399.11471   -275205.67            0   -273174.84   -651.93401    95.702039    103.11501    98.888863    3.4815208    368.42592    39823.493 
  106000    397.80332   -275212.69            0   -273188.53   -561.57518    95.702039    103.11501    98.888863    3.7824681    375.11405    39815.677 
  107000    399.41234   -275226.34            0      -273194   -775.77474    95.702039    103.11501    98.888863    3.8074023    382.20149    39849.534 
  108000    400.44654   -275219.95            0   -273182.35   -687.16993    95.702039    103.11501    98.888863    3.3581596    388.84477    39836.476 
  109000    399.20559   -275227.43            0   -273196.14   -413.53688    95.702039    103.11501    98.888863    3.4226291    395.43345    39818.138 
  110000    398.81242   -275211.76            0   -273182.47   -359.52041    95.702039    103.11501    98.888863    3.7695102    402.10733    39808.626 
  111000    402.12171   -275222.63            0    -273176.5     -547.378    95.702039    103.11501    98.888863    3.4963275    408.87094    39807.943 
  112000    399.40911   -275232.61            0   -273200.28   -456.44665    95.702039    103.11501    98.888863    4.0957923    415.49542    39793.739 
  113000    397.53727   -275232.82            0   -273210.02   -372.97279    95.702039    103.11501    98.888863    3.3489729    422.70482    39834.897 
  114000    401.07664   -275214.39            0   -273173.58   -536.06977    95.702039    103.11501    98.888863     4.277496    429.45118    39831.597 
  115000    401.71474   -275238.14            0   -273194.09   -398.93564    95.702039    103.11501    98.888863    4.1151411    436.00466     39810.58 
  116000    400.11324   -275238.58            0   -273202.67   -601.05188    95.702039    103.11501    98.888863    4.1203773    442.62334    39795.862 
  117000    403.54322   -275224.63            0   -273171.27   -392.13665    95.702039    103.11501    98.888863    3.7218291    449.16828    39774.857 
  118000    399.22004   -275232.14            0   -273200.78   -522.27043    95.702039    103.11501    98.888863    3.3760052    455.70326    39753.408 
  119000    399.85441   -275238.35            0   -273203.76   -323.56782    95.702039    103.11501    98.888863    3.4814852    462.93669    39792.428 
  120000    402.80259   -275214.36            0   -273164.76   -395.07905    95.702039    103.11501    98.888863    3.3612338    469.78741    39797.705 
  121000    400.02539   -275236.96            0    -273201.5   -704.21948    95.702039    103.11501    98.888863    3.7198389    476.50987     39791.93 
  122000    396.98743   -275237.09            0   -273217.09   -885.45311    95.702039    103.11501    98.888863    3.5790379    483.12748    39777.496 
  123000     402.2344   -275227.21            0   -273180.51   -152.86889    95.702039    103.11501    98.888863    3.3366213    489.58662     39750.41 
  124000    399.98215    -275235.1            0   -273199.86   -658.86869    95.702039    103.11501    98.888863     3.484772    496.08486    39727.012 
  125000    402.99849   -275228.92            0   -273178.34   -857.98064    95.702039    103.11501    98.888863    3.5566263    503.14143    39748.173 
  126000    399.10428    -275231.8            0   -273201.02   -567.30604    95.702039    103.11501    98.888863    3.7710774     509.8428    39740.904 
  127000    398.55587   -275231.14            0   -273203.16   -656.33812    95.702039    103.11501    98.888863     3.360887    516.58498     39736.79 
  128000    400.26772   -275249.06            0   -273212.37   -771.31062    95.702039    103.11501    98.888863    3.6472109    523.22508    39724.858 
  129000    401.32166   -275228.24            0   -273186.18   -494.68494    95.702039    103.11501    98.888863    3.8601232    529.74445    39704.011 
  130000    398.92441   -275239.81            0   -273209.95   -595.65799    95.702039    103.11501    98.888863    3.2220946     536.4301    39695.828 
  131000    401.54235   -275234.34            0   -273191.16   -765.10328    95.702039    103.11501    98.888863    3.3144094    543.57217    39721.033 
  132000    397.64257   -275242.36            0   -273219.02   -778.70102    95.702039    103.11501    98.888863     3.520364    550.23226    39710.665 
  133000     400.2664   -275236.76            0   -273200.07   -419.31681    95.702039    103.11501    98.888863    3.1742065    556.91079    39701.701 
  134000    400.39034   -275244.36            0   -273207.04   -283.66995    95.702039    103.11501    98.888863    3.6323639    563.54949    39689.985 
  135000    402.98794   -275246.07            0   -273195.53   -622.11462    95.702039    103.11501    98.888863    3.2045714     570.1393    39674.988 
  136000    396.87704   -275231.53            0   -273212.09   -762.42644    95.702039    103.11501    98.888863    3.3512385    576.74336    39661.165 
  137000    396.60347   -275221.88            0   -273203.84   -574.73339    95.702039    103.11501    98.888863    3.7445384    583.85752    39682.179 
  138000    401.53336   -275243.17            0   -273200.03   -448.87015    95.702039    103.11501    98.888863    3.3765003    590.35229     39660.94 
  139000    401.84832   -275255.49            0   -273210.75   -586.70904    95.702039    103.11501    98.888863    3.6181312    597.09451    39656.468 
  140000    397.73551   -275233.47            0   -273209.66   -527.64239    95.702039    103.11501    98.888863    3.4282673    603.74465    39645.898 
  141000    400.05757   -275248.48            0   -273212.86   -791.29587    95.702039    103.11501    98.888863    3.5919142    610.28197     39628.09 
  142000    398.50893   -275245.57            0   -273217.83   -584.90102    95.702039    103.11501    98.888863    3.7020419    616.90337    39615.925 
  143000    398.25175   -275248.28            0   -273221.84    -452.5941    95.702039    103.11501    98.888863    3.2224325    624.06017    39637.886 
  144000    400.95383   -275270.12            0   -273229.93   -728.43025    95.702039    103.11501    98.888863    3.6229625    630.63082      39622.4 
  145000    398.63628    -275245.5            0    -273217.1   -668.08717    95.702039    103.11501    98.888863    3.6509607    637.46829    39623.687 
  146000    399.10806   -275238.58            0   -273207.79   -561.08591    95.702039    103.11501    98.888863    3.8795107    644.08199    39611.043 
  147000    398.47915   -275257.87            0   -273230.28   -479.37895    95.702039    103.11501    98.888863    3.5473842    650.47377    39585.017 
  148000    401.94119   -275250.99            0   -273205.78   -405.37806    95.702039    103.11501    98.888863    3.6635241    657.12643    39575.104 
  149000    399.87923   -275231.69            0   -273196.97   -555.00232    95.702039    103.11501    98.888863    4.0029803     664.2783    39595.013 
  150000    397.72491   -275236.78            0   -273213.02   -606.32604    95.702039    103.11501    98.888863    3.6012215    670.81506    39578.088 
  151000    399.98834   -275251.93            0   -273216.66   -697.82492    95.702039    103.11501    98.888863    3.4749138    677.60034    39575.885 
  152000    399.68317   -275246.93            0   -273213.21   -519.53689    95.702039    103.11501    98.888863    3.3594365    684.34796    39571.415 
  153000    397.62588   -275243.51            0   -273220.26   -609.72799    95.702039    103.11501    98.888863    3.8289362    690.89472    39555.399 
  154000    400.39553   -275236.76            0   -273199.42   -628.40581    95.702039    103.11501    98.888863    3.6884034    697.51498    39543.734 
  155000    396.52232   -275242.89            0   -273225.26   -606.41763    95.702039    103.11501    98.888863     3.450355    704.74441    39566.365 
  156000    400.45811   -275243.01            0   -273205.35   -602.06776    95.702039    103.11501    98.888863    3.3202427    711.32109    39552.137 
  157000    399.26378   -275243.85            0   -273212.26   -483.76073    95.702039    103.11501    98.888863    4.2218352     718.1359    39551.167 
  158000    401.95279   -275235.88            0   -273190.61   -721.48407    95.702039    103.11501    98.888863    3.2809464    724.76616    39540.021 
  159000    402.47274   -275248.38            0   -273200.47   -783.17244    95.702039    103.11501    98.888863    3.8833962    731.22122    39519.488 
  160000    399.07876   -275260.24            0    -273229.6   -756.58987    95.702039    103.11501    98.888863    3.5905424    737.89051    39510.683 
  161000    399.37921   -275245.67            0    -273213.5   -803.10599    95.702039    103.11501    98.888863     4.252037    744.90711    39520.342 
  162000    396.87201      -275257            0   -273237.59   -584.25051    95.702039    103.11501    98.888863    3.4151091    751.39674        39502 
  163000    403.02206   -275254.22            0   -273203.51   -516.41517    95.702039    103.11501    98.888863    3.4247631    758.12897    39496.507 
  164000     399.6512    -275258.1            0   -273224.55   -719.81588    95.702039    103.11501    98.888863    4.3371295    764.72537    39483.978 
  165000    402.87225   -275261.21            0   -273211.27   -604.35871    95.702039    103.11501    98.888863    3.4819245     771.1991    39465.276 
  166000    398.75645   -275251.38            0   -273222.37   -515.88877    95.702039    103.11501    98.888863    3.5625259    777.93843    39460.256 
  167000    398.82532   -275269.93            0   -273240.58   -785.14445    95.702039    103.11501    98.888863      4.22623    784.97155     39469.98 
  168000    398.69247   -275247.59            0   -273218.91   -674.19633    95.702039    103.11501    98.888863    4.1030947    791.48367    39453.449 
  169000    399.46218   -275270.57            0   -273237.97   -825.58842    95.702039    103.11501    98.888863    3.6749897     798.2409      39449.2 
  170000    399.60812   -275253.77            0   -273220.43   -822.24999    95.702039    103.11501    98.888863    3.9436498    804.84518    39437.414 
  171000    399.46045   -275267.15            0   -273234.57   -641.07175    95.702039    103.11501    98.888863    3.4564825    811.37144    39421.923 
  172000    401.64993   -275266.65            0   -273222.92   -739.03762    95.702039    103.11501    98.888863    3.4340902    817.99563    39411.298 
  173000     398.3361   -275253.47            0    -273226.6   -534.05327    95.702039    103.11501    98.888863    3.5281216    824.98277    39418.079 
  174000    398.56268   -275244.73            0   -273216.71   -561.47139    95.702039    103.11501    98.888863    3.6565985    831.43474    39399.278 
  175000    397.64609   -275268.79            0   -273245.43   -993.84308    95.702039    103.11501    98.888863    3.9668555    838.36035    39402.937 
  176000    400.36818   -275249.91            0   -273212.71   -813.74384    95.702039    103.11501    98.888863    3.7104929    844.83266    39385.294 
  177000    402.20446   -275265.77            0   -273219.22    -651.4345    95.702039    103.11501    98.888863    3.8995459    851.36292    39370.507 
  178000    402.98571   -275269.06            0   -273218.53   -550.92272    95.702039    103.11501    98.888863     3.803485    858.06377    39363.675 
  179000    398.31389   -275271.73            0   -273244.98   -868.69385    95.702039    103.11501    98.888863    3.6071093    865.17917    39375.712 
  180000    401.71419   -275249.85            0    -273205.8    -679.0712    95.702039    103.11501    98.888863    3.7293174    871.62003    39356.997 
  181000      399.351   -275261.07            0   -273229.04   -561.72414    95.702039    103.11501    98.888863    3.2181193    878.43982    39355.445 
  182000    401.08437   -275252.82            0   -273211.97   -782.71077    95.702039    103.11501    98.888863    3.3215653    884.89288    39337.511 
  183000    400.36331   -275251.58            0    -273214.4   -856.67294    95.702039    103.11501    98.888863    3.4950062    891.42033    39323.031 
  184000    401.15153   -275271.67            0   -273230.48   -611.23496    95.702039    103.11501    98.888863    3.7179542    898.11602    39316.034 
  185000    397.66873   -275250.49            0   -273227.02   -794.83779    95.702039    103.11501    98.888863    3.9232602     905.2363    39327.488 
  186000    400.01867   -275260.86            0   -273225.44   -956.38783    95.702039    103.11501    98.888863    3.4130852    911.74924    39312.482 
  187000    398.60261   -275269.23            0   -273241.01   -1003.9967    95.702039    103.11501    98.888863    3.5461401    918.55194        39310 
  188000     399.7711   -275253.54            0   -273219.37   -562.75347    95.702039    103.11501    98.888863     3.711457    925.07775    39295.694 
  189000    398.41789   -275275.88            0    -273248.6   -954.84797    95.702039    103.11501    98.888863    3.4362004    931.57683    39280.373 
  190000    400.54777   -275258.63            0   -273220.51   -813.90701    95.702039    103.11501    98.888863    4.1005521    938.29896    39274.514 
  191000    397.73041   -275267.88            0    -273244.1   -836.98874    95.702039    103.11501    98.888863    3.9031539    945.32376    39281.219 
  192000    402.44493   -275258.58            0   -273210.81   -920.14681    95.702039    103.11501    98.888863    3.5756711    952.04395    39275.165 
  193000    401.08053   -275261.05            0   -273220.22   -501.87373    95.702039    103.11501    98.888863    3.8847819    958.90579    39274.904 
  194000    398.75757   -275261.91            0    -273232.9   -872.52312    95.702039    103.11501    98.888863    3.5111994    965.46605    39262.286 
  195000    399.67447   -275266.72            0   -273233.05   -1046.9264    95.702039    103.11501    98.888863    3.7868917    972.00422     39248.86 
  196000    399.78912   -275246.71            0   -273212.45   -926.49976    95.702039    103.11501    98.888863    3.2536665    978.81702     39246.54 
  197000    401.63947    -275271.3            0   -273227.63   -790.32262    95.702039    103.11501    98.888863    3.7703348    985.96642    39257.561 
  198000    399.86754    -275276.9            0   -273242.24   -825.56094    95.702039    103.11501    98.888863     3.693682    992.56355    39246.499 
  199000    398.03039   -275263.98            0   -273238.67   -788.19291    95.702039    103.11501    98.888863    3.5952539    999.40878     39245.24 
  200000    398.34283   -275250.45            0   -273223.56   -899.69606    95.702039    103.11501    98.888863    3.8263461     1006.121    39238.718 
  201000    399.33418   -275248.38            0   -273216.43   -724.21617    95.702039    103.11501    98.888863     3.639015    1012.7286    39228.144 
  202000    398.74837   -275257.68            0   -273228.71   -653.32167    95.702039    103.11501    98.888863    3.3173459    1019.6506    39229.715 
  203000    401.59873   -275269.26            0   -273225.79   -742.62444    95.702039    103.11501    98.888863    3.1777893    1026.7139    39236.578 
  204000    401.89749   -275268.88            0   -273223.89   -755.69073    95.702039    103.11501    98.888863    3.4016216    1033.1848    39220.767 
  205000    402.52253   -275261.83            0   -273213.66   -651.05861    95.702039    103.11501    98.888863    3.5576549     1039.931    39215.462 
  206000    397.36645   -275271.61            0   -273249.68   -829.82691    95.702039    103.11501    98.888863    3.4798185    1046.4292    39200.848 
  207000    400.02074   -275262.17            0   -273226.73   -604.11987    95.702039    103.11501    98.888863    3.4147345    1052.9953    39188.863 
  208000    398.49334   -275282.79            0   -273255.12   -835.09483    95.702039    103.11501    98.888863    3.6832304    1059.8984    39189.407 
  209000    402.79318   -275262.02            0   -273212.48   -884.19637    95.702039    103.11501    98.888863    4.0280629    1066.8129    39190.277 
  210000     399.6469   -275269.96            0   -273236.43   -800.89646    95.702039    103.11501    98.888863    3.5939906    1073.3733    39178.124 
  211000    399.09965   -275255.57            0   -273224.82   -1036.7334    95.702039    103.11501    98.888863    3.3074123    1080.2968    39179.211 
  212000    400.84891   -275258.64            0   -273218.99   -852.47747    95.702039    103.11501    98.888863    4.4369797    1086.9081    39168.946 
  213000    399.11846   -275255.85            0   -273225.01   -954.67524    95.702039    103.11501    98.888863    4.3077731    1093.4497    39156.231 
  214000    398.74591   -275274.33            0   -273245.38   -1010.0806    95.702039    103.11501    98.888863    4.6953934    1100.4037    39158.268 
  215000    399.40233   -275277.64            0   -273245.35   -835.64604    95.702039    103.11501    98.888863    3.6319461    1107.2549    39156.561 
  216000    398.99538   -275274.06            0   -273243.85   -877.67206    95.702039    103.11501    98.888863    3.4085586    1113.8659    39146.346 
  217000    399.99527   -275268.71            0   -273233.41   -895.49968    95.702039    103.11501    98.888863    3.3059974    1120.6189    39141.139 
  218000     399.5606   -275267.87            0   -273234.77   -755.44077    95.702039    103.11501    98.888863    3.7741837    1127.0857    39125.974 
  219000    398.22467   -275282.29            0   -273255.99   -609.53644    95.702039    103.11501    98.888863    3.4995333     1133.683    39115.418 
  220000    398.63848   -275262.26            0   -273233.86   -856.54838    95.702039    103.11501    98.888863    3.6135215    1140.6388      39117.2 
  221000    400.47136   -275268.08            0   -273230.35   -892.25957    95.702039    103.11501    98.888863    3.3031018    1147.4615    39114.345 
  222000    399.84417   -275261.39            0   -273226.85   -761.18771    95.702039    103.11501    98.888863     3.557219    1154.0703    39104.197 
  223000    400.43068   -275255.41            0   -273217.89   -735.15604    95.702039    103.11501    98.888863    3.5178453    1160.8364    39099.384 
  224000    401.93545   -275276.83            0   -273231.65    -662.3302    95.702039    103.11501    98.888863    3.5533831    1167.3779    39087.031 
  225000    400.36987   -275277.37            0   -273240.16   -820.19554    95.702039    103.11501    98.888863    3.4812542    1173.9556     39075.95 
  226000    401.29366   -275265.25            0   -273223.34   -711.43706    95.702039    103.11501    98.888863    3.8605121    1180.8764    39076.273 
  227000    401.68724   -275262.99            0   -273219.07    -819.2651    95.702039    103.11501    98.888863    3.2643936    1187.7047    39073.472 
  228000    398.89189   -275268.83            0   -273239.14   -842.24631    95.702039    103.11501    98.888863     3.395126    1194.2388    39061.003 
  229000    397.66914   -275276.75            0   -273253.28   -825.13531    95.702039    103.11501    98.888863    3.2824818    1201.0448    39057.439 
  230000    400.41192   -275265.38            0   -273227.95   -795.40962    95.702039    103.11501    98.888863    3.7790073    1207.6481    39047.287 
  231000    400.64094   -275271.07            0   -273232.48   -658.07599    95.702039    103.11501    98.888863    3.6915298     1214.208    39035.781 
  232000    400.20705   -275266.15            0   -273229.76   -646.58403    95.702039    103.11501    98.888863    3.9550947    1221.2489    39039.702 
  233000    399.46552   -275285.27            0   -273252.66    -861.9956    95.702039    103.11501    98.888863    3.7022772    1228.0625    39036.281 
  234000    399.65241   -275262.77            0   -273229.21   -860.21033    95.702039    103.11501    98.888863    3.7233216    1234.6493    39025.653 
  235000    400.04404   -275285.03            0   -273249.47   -773.06609    95.702039    103.11501    98.888863    3.6048766    1241.3916    39019.958 
  236000    398.68197   -275274.34            0   -273245.71   -679.52221    95.702039    103.11501    98.888863    3.9805239    1247.8523    39005.448 
  237000    399.75823   -275283.61            0   -273249.51   -963.60118    95.702039    103.11501    98.888863    3.9816736    1254.4177    38994.278 
  238000    400.38133   -275282.76            0   -273245.49   -846.04519    95.702039    103.11501    98.888863    3.9140447    1261.5329    39000.154 
  239000    399.77129   -275276.57            0   -273242.41   -1003.8218    95.702039    103.11501    98.888863    3.4793995    1268.3082    38995.443 
  240000    400.05619   -275264.83            0   -273229.21   -864.73478    95.702039    103.11501    98.888863    3.3667536    1274.9077    38985.334 
  241000     399.4665   -275287.12            0   -273254.51   -765.77237    95.702039    103.11501    98.888863    4.1639036    1281.5759    38977.354 
  242000    402.39694   -275276.69            0   -273229.16   -1035.1051    95.702039    103.11501    98.888863    3.2381071    1288.1302    38965.937 
  243000    399.54883   -275287.05            0   -273254.02   -1037.9245    95.702039    103.11501    98.888863    3.8779197    1294.7111    38955.376 
  244000    399.35184    -275277.5            0   -273245.47   -738.14647    95.702039    103.11501    98.888863    3.7042218    1301.7972    38959.972 
  245000    399.88794   -275275.55            0   -273240.79   -664.13662    95.702039    103.11501    98.888863    3.5679397    1308.4684    38952.098 
  246000    402.42793   -275288.35            0   -273240.66   -934.09659    95.702039    103.11501    98.888863    3.4261168    1315.0185    38940.649 
  247000    401.89366      -275287            0   -273242.03   -1049.8235    95.702039    103.11501    98.888863    3.0704663     1321.773    38935.273 
  248000    396.41179   -275273.24            0   -273256.17    -794.0641    95.702039    103.11501    98.888863    4.2697709    1328.4384    38927.271 
  249000    398.40824   -275263.45            0   -273236.21   -573.64924    95.702039    103.11501    98.888863    3.6958606    1334.9377    38914.439 
  250000    397.82553   -275268.31            0   -273244.04   -688.21889    95.702039    103.11501    98.888863    3.8152918    1341.9385    38916.216 
  251000    398.55035    -275276.5            0   -273248.55   -947.12716    95.702039    103.11501    98.888863    3.7662971    1348.7042    38911.122 
  252000    402.08334   -275284.33            0    -273238.4   -604.57726    95.702039    103.11501    98.888863    3.8111253    1355.3483    38902.521 
  253000    398.50989   -275273.88            0   -273246.13   -896.52478    95.702039    103.11501    98.888863    3.5302063    1362.1075    38897.228 
  254000    399.73922   -275269.78            0   -273235.78   -785.44743    95.702039    103.11501    98.888863    3.5764916    1368.6687    38886.293 
  255000    403.02511   -275283.42            0    -273232.7   -1034.7186    95.702039    103.11501    98.888863    4.3631088    1375.3625    38879.151 
  256000    398.16474   -275271.03            0   -273245.04   -1120.3876    95.702039    103.11501    98.888863    3.5366793    1382.4989    38884.458 
  257000    400.28884   -275288.99            0   -273252.19   -857.60146    95.702039    103.11501    98.888863    3.4550981    1389.1531    38876.154 
  258000    398.16711   -275257.51            0   -273231.51    -1011.283    95.702039    103.11501    98.888863    3.6363962     1395.958    38872.061 
  259000    399.67353   -275290.84            0   -273257.17   -923.14669    95.702039    103.11501    98.888863    3.5746244    1402.5886    38863.113 
  260000    399.34681   -275281.03            0   -273249.03   -1080.3654    95.702039    103.11501    98.888863    3.5281283    1409.1166    38851.359 
  261000    400.51856   -275268.42            0   -273230.45   -878.91945    95.702039    103.11501    98.888863    3.5634477    1415.6178    38838.918 
  262000    398.29823   -275279.39            0   -273252.72   -967.28453    95.702039    103.11501    98.888863    3.3778774     1422.756    38843.923 
  263000    401.04838   -275278.32            0   -273237.66   -753.75458    95.702039    103.11501    98.888863    3.6614757    1429.4422    38836.534 
  264000    398.59113   -275281.59            0   -273253.43   -982.59177    95.702039    103.11501    98.888863    3.3037983    1436.2078    38831.301 
  265000    400.42232   -275275.63            0   -273238.15   -1080.7387    95.702039    103.11501    98.888863    3.7773575    1442.8494    38822.716 
  266000    399.85099   -275289.22            0   -273254.64   -885.13403    95.702039    103.11501    98.888863     4.099542    1449.4471    38812.972 
  267000    399.12935   -275269.06            0   -273238.16   -974.64965    95.702039    103.11501    98.888863    3.9808677    1455.9789    38801.502 
  268000    400.16309   -275284.79            0   -273248.63   -960.27992    95.702039    103.11501    98.888863    3.2031461    1463.1307    38806.521 
  269000    398.75884    -275269.2            0   -273240.18   -821.41455    95.702039    103.11501    98.888863    3.5194057    1469.7535    38797.466 
  270000    403.04307    -275275.3            0   -273224.48   -885.63349    95.702039    103.11501    98.888863    3.7776786    1476.4959    38791.575 
  271000     400.4014   -275290.11            0   -273252.74   -900.32098    95.702039    103.11501    98.888863    3.6499939    1483.1272    38782.771 
  272000    400.93176   -275287.02            0   -273246.94   -979.11431    95.702039    103.11501    98.888863     3.485763    1489.5665    38768.987 
  273000    402.25773   -275270.12            0    -273223.3   -1117.7717    95.702039    103.11501    98.888863    3.3450465    1496.0513     38756.45 
  274000    398.17029   -275275.51            0   -273249.49   -857.52882    95.702039    103.11501    98.888863    3.3549522    1503.1737    38760.408 
  275000    398.56253   -275270.29            0   -273242.27   -794.19899    95.702039    103.11501    98.888863    3.7456804    1509.9051    38754.231 
  276000    396.07902   -275285.57            0   -273270.19   -852.73184    95.702039    103.11501    98.888863    3.6213742    1516.6032      38747.2 
  277000    399.02375   -275264.43            0   -273234.06   -869.06078    95.702039    103.11501    98.888863    3.9932667    1523.2247     38738.22 
  278000    399.38282   -275271.29            0    -273239.1    -786.7938    95.702039    103.11501    98.888863     3.700332    1529.8162    38728.506 
  279000    399.32646   -275284.87            0   -273252.96    -1022.927    95.702039    103.11501    98.888863    3.8830336     1536.447    38719.805 
  280000    401.72036   -275263.82            0   -273219.74    -1027.082    95.702039    103.11501    98.888863    3.8622655    1543.5596    38723.212 
  281000    400.22425   -275272.97            0    -273236.5   -974.54167    95.702039    103.11501    98.888863     3.740749    1550.2255    38715.371 
  282000    400.87804      -275291            0    -273251.2   -950.56805    95.702039    103.11501    98.888863    3.7460279    1556.9501        38709 
  283000    398.87446   -275272.15            0   -273242.55   -818.41111    95.702039    103.11501    98.888863    3.4507181    1563.6455    38701.903 
  284000    398.36553   -275289.55            0   -273262.53   -944.27267    95.702039    103.11501    98.888863    4.1087642    1570.1926    38691.156 
  285000    402.34385   -275274.01            0   -273226.75     -1024.03    95.702039    103.11501    98.888863    4.1049592    1576.8733    38683.722 
  286000    396.44043   -275281.69            0   -273264.47      -934.25    95.702039    103.11501    98.888863    3.7319373    1583.9578    38686.156 
  287000    400.31995   -275268.22            0   -273231.27    -832.1829    95.702039    103.11501    98.888863    3.6606738    1590.6351    38678.608 
  288000    401.34625   -275293.27            0   -273251.09   -727.54424    95.702039    103.11501    98.888863    3.7046694    1597.3965    38673.104 
  289000     399.3769   -275276.29            0   -273244.13   -1021.1972    95.702039    103.11501    98.888863    3.4761538    1604.2219    38669.132 
  290000    398.16684    -275301.1            0    -273275.1   -1105.9769    95.702039    103.11501    98.888863    3.5765757    1610.7653    38658.368 
  291000    400.96074   -275297.63            0   -273257.41   -1033.1348    95.702039    103.11501    98.888863    3.7373695    1617.5268    38652.849 
  292000    400.65198   -275290.53            0   -273251.88   -1095.6501    95.702039    103.11501    98.888863    3.7264891    1624.6142    38655.076 
  293000    401.18002   -275283.81            0   -273242.48   -960.88531    95.702039    103.11501    98.888863    3.6343798    1631.2229    38645.885 
  294000    399.99738   -275282.72            0   -273247.41   -945.81568    95.702039    103.11501    98.888863    3.1154315    1638.0106    38640.938 
  295000    399.81227   -275300.17            0    -273265.8   -810.67889    95.702039    103.11501    98.888863    4.0096604     1644.538    38629.861 
  296000    401.79822   -275297.95            0   -273253.47   -1074.7051    95.702039    103.11501    98.888863    3.9312401    1651.1558    38620.937 
  297000    401.73569   -275277.42            0   -273233.25   -943.09635    95.702039    103.11501    98.888863    3.3416171    1657.9328    38615.739 
  298000    401.30422    -275293.6            0   -273251.63   -958.76694    95.702039    103.11501    98.888863    4.2394198    1664.9437    38615.951 
  299000    399.13161   -275290.22            0   -273259.31   -935.72895    95.702039    103.11501    98.888863    3.5286225     1671.442    38604.269 
  300000    398.98103   -275286.03            0   -273255.88   -933.80193    95.702039    103.11501    98.888863    4.1996875    1678.3192    38601.343 
  301000    402.44716   -275281.31            0   -273233.52   -1164.7025    95.702039    103.11501    98.888863    3.3942432    1684.8776     38591.08 
  302000    402.63159   -275292.16            0   -273243.43   -934.45789    95.702039    103.11501    98.888863    3.6920055    1691.3502    38578.892 
  303000    401.43694   -275275.26            0   -273232.62   -959.41783    95.702039    103.11501    98.888863    3.9362081    1698.1181    38573.456 
  304000    399.70596   -275288.26            0   -273254.42   -1022.4035    95.702039    103.11501    98.888863    3.6003755    1705.1945    38574.992 
  305000    400.35573   -275286.51            0   -273249.37   -1049.0957    95.702039    103.11501    98.888863     3.626523    1711.7149     38563.93 
  306000    401.01422    -275295.7            0   -273255.21   -1081.3197    95.702039    103.11501    98.888863    3.4092911    1718.6166    38561.459 
  307000    400.44425   -275299.55            0   -273261.96   -1104.3009    95.702039    103.11501    98.888863    3.4743346    1725.1459    38550.633 
  308000    401.53897   -275287.12            0   -273243.96   -1234.7711    95.702039    103.11501    98.888863     3.331582    1731.7306    38541.074 
  309000    400.29851    -275276.6            0   -273239.76   -877.40715    95.702039    103.11501    98.888863    3.7081617    1738.4562    38534.661 
  310000    401.76712   -275299.84            0   -273255.52   -943.86699    95.702039    103.11501    98.888863    3.4431355    1745.4367    38533.871 
  311000    399.51972   -275296.66            0   -273263.78   -924.65035    95.702039    103.11501    98.888863    4.0687463    1751.9674    38523.144 
  312000    399.32791   -275276.91            0   -273244.99   -867.74245    95.702039    103.11501    98.888863    3.7121493     1758.858    38520.332 
  313000    398.48107   -275292.58            0   -273264.98   -1146.4153    95.702039    103.11501    98.888863    3.3643824    1765.5133    38512.356 
  314000     399.5435   -275290.65            0   -273257.64   -1060.6062    95.702039    103.11501    98.888863    3.4725151     1772.031    38501.402 
  315000    402.01591   -275279.55            0   -273233.97   -1023.3196    95.702039    103.11501    98.888863    3.6341961    1778.7622      38495.1 
  316000    398.17773   -275284.99            0   -273258.94   -910.09456    95.702039    103.11501    98.888863    3.2251863    1785.7154    38493.579 
  317000    403.06533   -275308.82            0   -273257.89   -988.67431    95.702039    103.11501    98.888863    3.5760223    1792.2386    38482.787 
  318000    397.65983   -275302.46            0   -273279.04   -1112.0893    95.702039    103.11501    98.888863    3.7957875    1799.0337     38477.84 
  319000    398.40856   -275279.82            0   -273252.59   -1053.8643    95.702039    103.11501    98.888863    4.1823328    1805.6601    38469.286 
  320000     400.7717   -275295.94            0   -273256.69   -1219.3097    95.702039    103.11501    98.888863     3.600196    1812.2699    38460.395 
  321000    398.00112   -275280.58            0   -273255.42   -1199.2725    95.702039    103.11501    98.888863    3.3008827    1819.0287    38454.669 
  322000    396.37952    -275286.7            0   -273269.79    -1139.853    95.702039    103.11501    98.888863    3.5458951     1825.989     38453.18 
  323000    399.32656   -275281.47            0   -273249.56    -1353.154    95.702039    103.11501    98.888863    3.8582213    1832.4927    38442.071 
  324000    395.82981   -275290.02            0   -273275.91   -1357.2254    95.702039    103.11501    98.888863    3.9350014    1839.3517    38438.423 
  325000    397.60695   -275292.04            0   -273268.88   -1070.0652    95.702039    103.11501    98.888863    3.9752064    1845.8545    38427.334 
  326000     398.8206   -275288.74            0   -273259.41   -1233.3496    95.702039    103.11501    98.888863    3.7268303     1852.386    38416.875 
  327000    399.87877   -275294.68            0   -273259.96   -920.60029    95.702039    103.11501    98.888863    4.0482612    1859.1563    38411.376 
  328000    398.83718   -275304.89            0   -273275.48   -1047.0147    95.702039    103.11501    98.888863     3.850102    1866.1401    38410.265 
  329000    401.20938   -275287.43            0   -273245.95   -821.78781    95.702039    103.11501    98.888863    4.0502215    1872.7082    38400.587 
  330000    401.69074    -275295.4            0   -273251.47    -1216.833    95.702039    103.11501    98.888863    3.7093609    1879.5305    38396.124 
  331000    397.28774   -275289.68            0   -273268.15   -898.06793    95.702039    103.11501    98.888863    3.9067405    1886.0569    38385.621 
  332000    399.33583   -275280.54            0   -273248.59   -1032.7546    95.702039    103.11501    98.888863    3.2265154    1892.6434    38376.365 
  333000    399.38782   -275281.88            0   -273249.66   -891.06152    95.702039    103.11501    98.888863    3.8452993    1899.4973     38372.53 
  334000    401.53254   -275290.04            0   -273246.91   -1013.2502    95.702039    103.11501    98.888863    3.2440708    1906.4315    38370.291 
  335000    399.91064   -275289.21            0   -273254.33   -1038.4821    95.702039    103.11501    98.888863    3.4752738    1912.9854    38360.392 
  336000    397.32289   -275290.63            0   -273268.92   -1068.8244    95.702039    103.11501    98.888863    3.7386454    1919.8193     38356.11 
  337000    402.62775   -275291.11            0   -273242.41    -1079.343    95.702039    103.11501    98.888863    3.9731491    1926.2536    38343.857 
  338000    400.32809   -275291.39            0   -273254.39   -925.65581    95.702039    103.11501    98.888863    3.6964175    1932.7698    38333.269 
  339000    401.97138   -275296.22            0   -273250.86   -853.00772    95.702039    103.11501    98.888863    5.0448946    1939.6639    38330.175 
  340000    398.91234   -275319.51            0   -273289.72   -1210.3355    95.702039    103.11501    98.888863     4.508937    1946.6681    38329.224 
  341000    398.93245   -275291.64            0   -273261.74   -1017.8714    95.702039    103.11501    98.888863    3.5842393    1953.4002    38322.893 
  342000    402.55229   -275289.47            0   -273241.15   -1003.8369    95.702039    103.11501    98.888863    3.5543175    1960.1545    38316.993 
  343000    401.84346   -275307.63            0   -273262.92   -1096.0427    95.702039    103.11501    98.888863    3.3876506    1966.6778    38306.587 
  344000    400.19891   -275282.62            0   -273246.28   -1105.1826    95.702039    103.11501    98.888863    3.9551664    1973.2635    38297.419 
  345000    398.70756   -275285.95            0    -273257.2    -1008.664    95.702039    103.11501    98.888863    3.7359288    1980.1446    38293.982 
  346000     401.1837   -275288.97            0   -273247.62   -1094.7935    95.702039    103.11501    98.888863    3.9783213    1987.0741    38291.455 
  347000    401.67008   -275276.23            0    -273232.4   -1457.5742    95.702039    103.11501    98.888863    3.3513414    1993.6707    38282.506 
  348000    397.75685   -275286.78            0   -273262.86   -1055.1017    95.702039    103.11501    98.888863    4.2874344    2000.3647    38275.435 
  349000    398.73814   -275286.68            0   -273257.77   -905.44979    95.702039    103.11501    98.888863     3.523365    2006.8622     38264.62 
  350000    400.25388   -275279.87            0   -273243.24   -948.24707    95.702039    103.11501    98.888863    3.6666591    2013.3761    38254.146 
  351000    400.76703   -275289.88            0   -273250.64   -1220.2484    95.702039    103.11501    98.888863    3.8255408    2020.3344    38252.112 
  352000    399.07154   -275289.43            0   -273258.83   -1114.3566    95.702039    103.11501    98.888863    3.8256325    2027.1887    38248.083 
  353000    402.52624   -275291.03            0   -273242.85   -1190.1137    95.702039    103.11501    98.888863    3.3327066    2033.8962    38241.277 
  354000    400.55185   -275288.72            0   -273250.58   -1179.1168    95.702039    103.11501    98.888863     3.918717    2040.6658    38235.633 
  355000    396.19291    -275293.9            0   -273277.94   -973.91221    95.702039    103.11501    98.888863    3.7659788    2047.2014    38225.613 
  356000    400.44849   -275289.66            0   -273252.05   -1291.5644    95.702039    103.11501    98.888863    4.2865156    2053.8087    38216.949 
  357000    399.97267   -275268.48            0   -273233.29   -1280.5879    95.702039    103.11501    98.888863    3.6107126    2060.8174    38215.744 
  358000    398.62988   -275288.89            0   -273260.53   -1047.3196    95.702039    103.11501    98.888863    3.9816981    2067.6778     38211.76 
  359000    397.16912   -275292.18            0   -273271.25   -1173.9516    95.702039    103.11501    98.888863    4.4559127    2074.2549     38202.54 
  360000    401.00208   -275297.79            0   -273257.36   -1196.6039    95.702039    103.11501    98.888863    4.0336964    2081.0457    38197.258 
  361000    400.02186   -275285.88            0   -273250.44   -969.69001    95.702039    103.11501    98.888863    3.4927205    2087.6408    38188.387 
  362000     398.6359   -275308.99            0    -273280.6   -868.36366    95.702039    103.11501    98.888863    3.4328711    2094.1216    38177.448 
  363000    402.96939   -275298.35            0   -273247.91    -1050.122    95.702039    103.11501    98.888863    3.1963286    2101.1352    38176.216 
  364000    400.44382   -275290.55            0   -273252.97   -1105.6961    95.702039    103.11501    98.888863    3.3738418    2107.9085    38170.598 
  365000    400.46145   -275296.74            0   -273259.06   -1057.5862    95.702039    103.11501    98.888863    3.4167553    2114.5378    38162.373 
  366000    400.47585   -275290.52            0   -273252.77   -1079.3078    95.702039    103.11501    98.888863    3.4633153    2121.1928     38154.62 
  367000    399.18252    -275256.5            0   -273225.33   -1096.3909    95.702039    103.11501    98.888863    4.4300341    2127.7527    38145.169 
  368000    400.76618   -275293.02            0   -273253.79   -1304.0799    95.702039    103.11501    98.888863    3.8814282    2134.3117    38135.721 
  369000    400.59464    -275300.3            0   -273261.94   -1168.6104    95.702039    103.11501    98.888863      3.79717    2141.3452     38134.74 
  370000    399.12415   -275289.33            0   -273258.46   -1163.4876    95.702039    103.11501    98.888863    3.3108928    2148.2169    38130.851 
  371000    400.53505   -275311.27            0   -273273.22   -1141.9446    95.702039    103.11501    98.888863    3.5845337    2154.8565    38122.835 
  372000    399.54376   -275297.45            0   -273264.44   -1054.6988    95.702039    103.11501    98.888863    3.9187679    2161.5578    38115.917 
  373000     399.2293   -275286.31            0    -273254.9   -1112.1924    95.702039    103.11501    98.888863    3.5281788    2167.9649    38103.829 
  374000    400.42282   -275288.26            0   -273250.78    -887.2274    95.702039    103.11501    98.888863    4.1205043     2174.498    38093.983 
  375000    398.84339   -275274.05            0   -273244.61   -1007.5126    95.702039    103.11501    98.888863    3.1444404    2181.5366    38092.986 
  376000    401.71753   -275291.14            0   -273247.07   -1067.3033    95.702039    103.11501    98.888863    3.1475655    2188.2046    38085.499 
  377000    401.04443   -275310.77            0   -273270.13   -1017.0095    95.702039    103.11501    98.888863    3.8617062    2194.8121     38076.97 
  378000    403.59645   -275295.52            0   -273241.89   -933.02439    95.702039    103.11501    98.888863    3.5742344    2201.5279    38070.324 
  379000    399.32276   -275306.83            0   -273274.95   -1107.6029    95.702039    103.11501    98.888863    3.3960906    2208.2185    38063.243 
  380000     399.4785   -275313.84            0   -273281.17    -1325.812    95.702039    103.11501    98.888863    4.1240507    2214.7816    38053.975 
  381000    398.46628   -275284.88            0   -273257.35   -1305.7082    95.702039    103.11501    98.888863    4.1719816    2221.8892    38054.049 
  382000    399.64173   -275292.24            0   -273258.73   -814.18533    95.702039    103.11501    98.888863     3.504195    2228.5855    38047.056 
  383000    398.60855   -275288.01            0   -273259.76   -911.06859    95.702039    103.11501    98.888863    3.4699212     2235.304    38040.444 
  384000    400.62113    -275299.5            0   -273261.01   -1084.5206    95.702039    103.11501    98.888863    3.4007644    2241.9181    38032.061 
  385000    398.61507   -275281.44            0   -273253.16   -946.92266    95.702039    103.11501    98.888863    3.6393113    2248.4473     38022.25 
  386000    398.86647   -275306.31            0   -273276.75   -1102.7277    95.702039    103.11501    98.888863     3.764514    2255.0957    38014.471 
  387000    401.27575   -275289.61            0   -273247.79   -1224.8249    95.702039    103.11501    98.888863     3.678836    2262.2439    38015.095 
  388000     399.5867   -275300.25            0   -273267.03   -1179.8751    95.702039    103.11501    98.888863    3.7549392    2269.0127    38009.319 
  389000    402.38487   -275291.49            0   -273244.03   -987.70454    95.702039    103.11501    98.888863    3.8656804    2275.6702    38001.678 
  390000    400.88454    -275296.1            0   -273256.27   -1473.8286    95.702039    103.11501    98.888863    3.4987446    2282.4302     37995.75 
  391000    403.46109   -275285.25            0   -273232.31   -1123.5295    95.702039    103.11501    98.888863    3.3809551    2288.9723      37986.2 
  392000    396.83529   -275298.61            0   -273279.38   -988.70652    95.702039    103.11501    98.888863    3.5859239    2295.5471    37977.208 
  393000    400.55427   -275288.33            0   -273250.18   -1275.8744    95.702039    103.11501    98.888863    3.2783827    2302.6487     37976.92 
  394000    398.86332   -275291.62            0   -273262.07   -1002.2136    95.702039    103.11501    98.888863    3.9800967    2309.2919    37969.055 
  395000    397.29746   -275291.62            0   -273270.04   -830.63123    95.702039    103.11501    98.888863    4.6095148    2315.9691    37961.754 
  396000    398.89738   -275284.91            0   -273255.19   -1145.9233    95.702039    103.11501    98.888863    3.6413886    2322.6058    37953.795 
  397000    400.91847   -275294.16            0   -273254.15   -921.95676    95.702039    103.11501    98.888863    3.8900341    2329.1643     37944.57 
  398000    398.71667   -275301.59            0   -273272.79   -959.25312    95.702039    103.11501    98.888863    3.9377953     2335.787    37936.403 
  399000    397.55518    -275295.8            0   -273272.91   -926.46589    95.702039    103.11501    98.888863    3.3589518    2342.9149    37936.425 
  400000    398.80683   -275294.85            0   -273265.59   -934.71156    95.702039    103.11501    98.888863     3.895069    2349.5347    37928.203 
  401000    398.18135   -275295.74            0   -273269.66    -1128.001    95.702039    103.11501    98.888863    3.7804491    2356.1551        37920 
  402000     399.2319   -275304.85            0   -273273.43   -1333.6245    95.702039    103.11501    98.888863    3.3179754    2362.8663    37913.264 
  403000    403.31144    -275303.1            0   -273250.92   -1079.3757    95.702039    103.11501    98.888863    3.3896645    2369.3692    37903.194 
  404000    399.40631   -275306.83            0   -273274.52   -1066.0272    95.702039    103.11501    98.888863    3.5980573    2375.9126    37893.793 
  405000    400.78837   -275298.47            0   -273259.12   -965.98059    95.702039    103.11501    98.888863    3.5114466    2383.0258    37893.466 
  406000    400.60691   -275307.38            0   -273268.96   -992.97213    95.702039    103.11501    98.888863    3.4129157    2389.6653    37885.592 
  407000    399.42888   -275283.75            0   -273251.33    -979.9738    95.702039    103.11501    98.888863    3.7884608     2396.348    37878.409 
  408000    400.56264   -275291.76            0   -273253.57    -1203.352    95.702039    103.11501    98.888863    3.7455074    2403.0634    37871.742 
  409000    400.63829    -275299.6            0   -273261.03   -1012.9546    95.702039    103.11501    98.888863    3.8659351    2409.5803    37861.957 
  410000    401.76379   -275297.46            0   -273253.16   -1271.8363    95.702039    103.11501    98.888863    3.4079812    2416.2015    37853.823 
  411000    400.71965   -275307.98            0   -273268.99   -1254.1856    95.702039    103.11501    98.888863    3.3089647    2423.3103    37853.315 
  412000    399.82972   -275317.23            0   -273282.77   -1106.5927    95.702039    103.11501    98.888863    3.7478031      2429.98    37845.932 
  413000     397.9537   -275304.96            0   -273280.04   -1149.0374    95.702039    103.11501    98.888863    3.6796366    2436.6984    37839.308 
  414000    398.36318   -275292.05            0   -273265.05   -913.97186    95.702039    103.11501    98.888863    4.5234056    2443.2846    37830.638 
  415000    398.94595   -275292.23            0   -273262.26   -1373.5664    95.702039    103.11501    98.888863    4.0684522    2449.8011    37820.901 
  416000     399.4678   -275295.39            0   -273262.77   -970.56977    95.702039    103.11501    98.888863    3.1204711    2456.3994    37812.444 
  417000    400.32526   -275311.06            0   -273274.08   -810.48736    95.702039    103.11501    98.888863    3.6371653    2463.4803    37811.403 
  418000    396.73536   -275291.84            0   -273273.12   -984.03913    95.702039    103.11501    98.888863    3.5361737    2470.2254    37805.189 
  419000    401.87318   -275299.09            0   -273254.23   -1178.5188    95.702039    103.11501    98.888863    3.4295064    2476.9467     37798.61 
  420000    399.87454   -275305.16            0   -273270.47   -1074.9217    95.702039    103.11501    98.888863    3.4197469    2483.6126    37791.186 
  421000     399.4666   -275306.56            0   -273273.94   -1106.6929    95.702039    103.11501    98.888863    3.9128198    2490.2044    37782.643 
  422000    399.54499   -275317.53            0   -273284.51   -785.12496    95.702039    103.11501    98.888863    4.8482657    2496.8031    37774.214 
  423000    400.20671   -275311.17            0   -273274.79   -952.38888    95.702039    103.11501    98.888863    3.7391525    2503.8774    37772.971 
  424000    400.77867   -275303.68            0   -273264.39   -1096.4576    95.702039    103.11501    98.888863    3.9235775     2510.517    37765.156 
  425000    400.12611   -275313.48            0   -273277.51   -1239.4506    95.702039    103.11501    98.888863    3.8647343    2517.3428    37760.143 
  426000    400.20563   -275291.51            0   -273255.13   -1052.1819    95.702039    103.11501    98.888863     3.836633     2523.901    37751.115 
  427000    401.63673   -275311.28            0   -273267.62   -960.55134    95.702039    103.11501    98.888863    3.7934833    2530.4799     37742.41 
  428000    399.72338   -275312.59            0   -273278.66   -1125.3647    95.702039    103.11501    98.888863    3.6741323    2537.2516    37736.583 
  429000    396.98976   -275314.29            0   -273294.28   -1146.9745    95.702039    103.11501    98.888863    3.3380316     2544.345    37735.524 
  430000    398.38118   -275297.52            0   -273270.43   -1255.7934    95.702039    103.11501    98.888863    3.4212794    2550.8796    37726.167 
  431000    399.85798   -275297.95            0   -273263.34   -1187.5421    95.702039    103.11501    98.888863     3.159524    2557.6303    37720.012 
  432000    399.84132   -275293.18            0   -273258.66    -1248.912    95.702039    103.11501    98.888863    3.5027422    2564.1875    37711.009 
  433000    396.57305   -275290.87            0   -273272.98   -1282.7791    95.702039    103.11501    98.888863    3.8522392    2570.7297    37701.798 
  434000    398.97302   -275293.85            0   -273263.74   -1073.2274    95.702039    103.11501    98.888863    3.9779313    2577.4011    37694.491 
  435000    402.74853   -275302.58            0   -273253.27   -1093.4265    95.702039    103.11501    98.888863    3.3517606    2584.4889     37693.26 
  436000    398.87006   -275301.16            0   -273271.58   -1363.0314    95.702039    103.11501    98.888863     3.178499     2591.031    37684.063 
  437000    401.30694   -275292.46            0   -273250.48   -1045.4267    95.702039    103.11501    98.888863    4.2017228     2597.809      37678.3 
  438000     395.5846   -275299.33            0   -273286.47   -1144.2885    95.702039    103.11501    98.888863    3.8504934    2604.3496    37669.097 
  439000    402.14699   -275282.81            0   -273236.56   -1313.9782    95.702039    103.11501    98.888863    3.2623917    2610.9269    37660.439 
  440000    396.93302   -275306.52            0    -273286.8   -1484.3726    95.702039    103.11501    98.888863    3.7398722    2617.5643    37652.656 
  441000    402.40728   -275303.18            0    -273255.6   -1223.5661    95.702039    103.11501    98.888863    3.6617229     2624.611     37650.75 
  442000    396.80024   -275312.33            0   -273293.28   -1094.9574    95.702039    103.11501    98.888863    3.4480643       2631.2    37642.269 
  443000    398.48208   -275309.79            0   -273282.19   -956.84984    95.702039    103.11501    98.888863     3.463584    2637.9996    37636.803 
  444000    401.74088    -275300.6            0   -273256.41   -1295.2318    95.702039    103.11501    98.888863    3.8093899    2644.6049    37628.566 
  445000    403.21818   -275296.62            0   -273244.92   -1202.9887    95.702039    103.11501    98.888863     3.779409    2651.1031    37618.818 
  446000    400.48039   -275289.32            0   -273251.54    -1007.607    95.702039    103.11501    98.888863        3.516    2657.7679    37611.443 
  447000    400.48797   -275302.18            0   -273264.37   -1276.6448    95.702039    103.11501    98.888863    4.2752691    2664.7932     37609.16 
  448000     398.1618   -275294.41            0   -273268.43   -1115.6249    95.702039    103.11501    98.888863    3.2774089    2671.2776     37599.24 
  449000    400.76653   -275308.89            0   -273269.66   -990.28863    95.702039    103.11501    98.888863    3.6785557    2678.0792    37593.789 
  450000    399.90521   -275280.77            0   -273245.92   -1103.7249    95.702039    103.11501    98.888863    3.3212929    2684.4889    37582.845 
  451000     398.0972   -275295.29            0   -273269.64   -1137.6292    95.702039    103.11501    98.888863     3.950023    2691.0297    37573.754 
  452000    402.07755   -275290.86            0   -273244.96    -1295.235    95.702039    103.11501    98.888863     3.307184    2697.7059    37566.561 
  453000    400.56064    -275318.3            0   -273280.12   -1099.0087    95.702039    103.11501    98.888863    3.5726593    2704.7992    37565.164 
  454000    397.98231   -275305.55            0   -273280.49   -1275.3377    95.702039    103.11501    98.888863    3.6661825    2711.3147    37555.735 
  455000    402.11232   -275295.54            0   -273249.46   -1220.3896    95.702039    103.11501    98.888863    3.6111307     2718.096    37549.993 
  456000     399.9217   -275309.51            0   -273274.58   -1286.1654    95.702039    103.11501    98.888863    3.2606754     2724.786    37542.987 
  457000    400.21117   -275302.58            0   -273266.17   -1173.9881    95.702039    103.11501    98.888863    3.4382142    2731.3803    37534.668 
  458000    401.45441   -275308.63            0    -273265.9    -873.4544    95.702039    103.11501    98.888863    3.6140202    2737.9852    37526.503 
  459000    400.27403   -275307.41            0   -273270.68   -1190.9853    95.702039    103.11501    98.888863    3.9362334    2745.0477    37524.601 
  460000    403.69153    -275294.7            0   -273240.58   -945.43105    95.702039    103.11501    98.888863    3.5162092    2751.6333    37516.171 
  461000    401.06531   -275301.54            0   -273260.79   -1166.3602    95.702039    103.11501    98.888863    3.8536335    2758.4771    37511.262 
  462000    401.73949   -275297.59            0    -273253.4   -1175.7838    95.702039    103.11501    98.888863     3.293149    2765.0814    37503.094 
  463000    398.66743   -275308.72            0   -273280.17   -1159.5296    95.702039    103.11501    98.888863    3.4179443    2771.6324    37494.214 
  464000    399.38492   -275308.19            0   -273275.99   -991.09171    95.702039    103.11501    98.888863    3.5012531     2778.474    37489.265 
  465000    400.13034   -275300.53            0   -273264.53   -1085.5942    95.702039    103.11501    98.888863    4.6873697     2785.562    37487.624 
  466000    396.84052   -275317.94            0   -273298.69   -1221.4368    95.702039    103.11501    98.888863    3.4395613    2792.0795    37478.297 
  467000    400.57318   -275294.23            0   -273255.99     -1006.78    95.702039    103.11501    98.888863    3.9015389    2798.8583    37472.484 
  468000    399.23534   -275298.98            0   -273267.54   -1251.0142    95.702039    103.11501    98.888863    3.8044299    2805.6704    37467.111 
  469000    400.37509   -275309.38            0   -273272.14   -1327.4512    95.702039    103.11501    98.888863    3.7197585     2812.247    37458.593 
  470000    400.44301    -275291.5            0   -273253.91   -1268.8235    95.702039    103.11501    98.888863    3.2753001    2818.9999    37452.427 
  471000    401.05462   -275303.84            0   -273263.15   -1195.8425    95.702039    103.11501    98.888863    3.2683241     2826.019    37449.786 
  472000     401.1023    -275310.9            0   -273269.96   -980.27358    95.702039    103.11501    98.888863    3.5204593    2832.6242    37441.653 
  473000    400.63901   -275312.07            0   -273273.49   -1190.5861    95.702039    103.11501    98.888863    3.3604144    2839.3378    37434.957 
  474000    402.09772   -275301.98            0   -273255.98   -1325.9942    95.702039    103.11501    98.888863     4.140116    2845.8568    37425.701 
  475000    399.89705    -275295.2            0   -273260.39   -1235.1333    95.702039    103.11501    98.888863    3.6453109    2852.4396    37417.297 
  476000    401.58328   -275299.22            0   -273255.83   -1137.7984    95.702039    103.11501    98.888863    3.8875267    2859.3155    37412.734 
  477000    400.25887      -275308            0   -273271.35   -1317.0552    95.702039    103.11501    98.888863    3.6090336    2866.3624    37410.393 
  478000    397.97922   -275311.69            0   -273286.64   -1344.8149    95.702039    103.11501    98.888863    4.0063432    2872.9031    37401.439 
  479000     402.1872   -275315.01            0   -273268.55   -1194.0228    95.702039    103.11501    98.888863    3.3325377    2879.7204     37396.09 
  480000    399.33609   -275320.43            0   -273288.47   -1293.3463    95.702039    103.11501    98.888863    3.4833642    2886.1713    37385.987 
  481000    398.11067   -275308.25            0   -273282.53   -1185.3357    95.702039    103.11501    98.888863    3.9824391     2892.869     37379.09 
  482000    398.31773   -275299.86            0   -273273.09   -1083.2095    95.702039    103.11501    98.888863    3.5201404    2899.6992    37373.901 
  483000    402.84136   -275324.83            0   -273275.04   -1069.7106    95.702039    103.11501    98.888863    3.4436658    2906.7094     37371.02 
  484000    397.77083   -275315.14            0   -273291.15   -949.23634    95.702039    103.11501    98.888863    4.6549505    2913.2946    37362.667 
  485000     399.4083   -275309.24            0   -273276.92   -1167.3182    95.702039    103.11501    98.888863    3.5044418    2920.1074    37357.236 
  486000     401.2589   -275311.24            0   -273269.51   -1125.1919    95.702039    103.11501    98.888863    3.2476552    2926.7111     37349.13 
  487000    399.89472   -275303.41            0   -273268.61   -933.55134    95.702039    103.11501    98.888863    3.8501652    2933.2898    37340.712 
  488000    394.89519   -275313.59            0   -273304.24   -1124.2747    95.702039    103.11501    98.888863     3.372503    2940.1786    37336.241 
  489000    397.84722   -275305.97            0    -273281.6   -1303.7386    95.702039    103.11501    98.888863    3.5483716    2947.0208    37331.168 
  490000     400.5389   -275305.44            0   -273267.37   -1240.1543    95.702039    103.11501    98.888863    4.2623441    2953.7545    37324.716 
[...]
15930000    402.99464   -275452.14            0   -273401.57   -1857.7088    95.702039    103.11501    98.888863    3.7090563    66453.558    807.12823 
15931000    400.41887   -275448.37            0   -273410.91   -1931.2724    95.702039    103.11501    98.888863     3.695327    66460.686    800.40701 
15932000    401.71359   -275466.92            0   -273422.87   -1814.2473    95.702039    103.11501    98.888863    3.3695234    66467.209    793.67847 
15933000    401.17569   -275445.78            0   -273404.47   -1789.9054    95.702039    103.11501    98.888863    3.4132596    66474.016    786.95334 
15934000    399.46645   -275457.22            0    -273424.6   -2307.1266    95.702039    103.11501    98.888863    4.5185501    66480.539    780.22486 
15935000    401.28315   -275461.15            0    -273419.3   -2215.4568    95.702039    103.11501    98.888863    3.9622647    66487.116    773.49705 
15936000    399.78299   -275465.63            0   -273431.41   -2148.8309    95.702039    103.11501    98.888863    3.7335975    66493.728    766.76967 
15937000    399.00424   -275446.21            0   -273415.94   -2128.8672    95.702039    103.11501    98.888863    3.7790237    66500.838    760.04801 
15938000    401.30997   -275442.13            0   -273400.13   -2006.1514    95.702039    103.11501    98.888863    3.5347124    66507.516    753.32138 
15939000    398.52408   -275453.12            0    -273425.3   -2345.3937    95.702039    103.11501    98.888863    3.5780958    66514.324    746.59621 
15940000    398.62147   -275456.89            0   -273428.58   -1982.4417    95.702039    103.11501    98.888863    3.5530722    66520.809    739.86744 
15941000    398.49471   -275439.83            0   -273412.16   -1932.6324    95.702039    103.11501    98.888863    3.3723715    66527.388    733.13976 
15942000    400.46968    -275447.1            0   -273409.38   -2044.8342    95.702039    103.11501    98.888863    3.9557595    66533.984    726.41228 
15943000    403.12626   -275451.62            0   -273400.38    -2105.201    95.702039    103.11501    98.888863    3.2643189    66541.074    719.69018 
15944000    403.54947   -275451.64            0   -273398.25   -1911.7366    95.702039    103.11501    98.888863     3.191033    66547.762    712.96369 
15945000    399.85228   -275467.34            0   -273432.76   -2248.4558    95.702039    103.11501    98.888863    4.2346725     66554.51    706.23786 
15946000    401.52843   -275447.05            0   -273403.94   -1913.4316    95.702039    103.11501    98.888863    4.4500851    66561.025    699.50956 
15947000     399.9188   -275455.26            0   -273420.34   -1966.0526    95.702039    103.11501    98.888863    3.5402445     66567.49    692.78079 
15948000    402.18082   -275441.16            0   -273394.73   -2099.2747    95.702039    103.11501    98.888863    3.8779025    66574.174    686.05433 
15949000    401.46796   -275450.42            0   -273407.62   -2276.8835    95.702039    103.11501    98.888863    3.7568248    66581.207    679.33144 
15950000    397.67687   -275464.17            0   -273440.66   -2164.8532    95.702039    103.11501    98.888863    3.1407635    66587.862    672.60467 
15951000    399.96073    -275447.2            0   -273412.07   -2008.2305    95.702039    103.11501    98.888863    3.8562914    66594.658    665.87932 
15952000    400.33984   -275461.96            0    -273424.9   -2078.4245    95.702039    103.11501    98.888863    3.8785305    66601.175     659.1512 
15953000    400.67533   -275460.89            0   -273422.12   -2207.7244    95.702039    103.11501    98.888863    3.6674171    66607.751    652.42369 
15954000    397.91689   -275430.07            0   -273405.34   -1898.7293    95.702039    103.11501    98.888863    3.3958494    66614.397     645.6969 
15955000    398.31922   -275441.16            0   -273414.38   -2028.5571    95.702039    103.11501    98.888863    3.4475424    66621.453    638.97406 
15956000    397.42945   -275453.54            0   -273431.29   -2242.2066    95.702039    103.11501    98.888863    3.4351188    66628.088    632.24715 
15957000    401.40927   -275456.94            0   -273414.43   -2109.2584    95.702039    103.11501    98.888863    3.4739175    66634.868    625.52163 
15958000    402.22687   -275463.23            0   -273416.57   -2239.1106    95.702039    103.11501    98.888863    3.4883926    66641.383    618.79363 
15959000    397.48911      -275448            0   -273425.45   -1932.8445    95.702039    103.11501    98.888863    3.5473367    66647.984    612.06646 
15960000    398.04756   -275456.59            0    -273431.2   -2132.3609    95.702039    103.11501    98.888863    3.9289945     66654.63    605.33973 
15961000    401.07558   -275446.93            0   -273406.13   -2186.8368    95.702039    103.11501    98.888863    3.6899447    66661.758    598.61734 
15962000     401.3194   -275438.53            0   -273396.48    -2065.592    95.702039    103.11501    98.888863    4.3351665    66668.432    591.89084 
15963000    400.76551   -275448.49            0   -273409.26   -2101.4792    95.702039    103.11501    98.888863    3.6715133    66675.262    585.16572 
15964000    398.62651   -275457.02            0   -273428.68   -2186.4168    95.702039    103.11501    98.888863    3.4699972     66681.75    578.43761 
15965000    400.21553   -275450.67            0   -273414.24   -2178.1576    95.702039    103.11501    98.888863    3.4159767    66688.385    571.71081 
15966000    398.57194   -275449.92            0   -273421.86   -2238.6842    95.702039    103.11501    98.888863    3.6648057    66695.018    564.98402 
15967000    401.85738    -275456.9            0   -273412.12   -1940.5003    95.702039    103.11501    98.888863    3.3396772    66702.092    558.26093 
15968000    398.39354   -275464.46            0    -273437.3   -2198.6997    95.702039    103.11501    98.888863    3.9329053    66708.657    551.53357 
15969000    402.01075   -275461.71            0   -273416.15   -2275.3095    95.702039    103.11501    98.888863    3.4623625    66715.333    544.80714 
15970000    400.41234   -275462.41            0   -273424.98   -2137.7135    95.702039    103.11501    98.888863    4.2449444    66721.863    538.07954 
15971000    401.77271   -275463.35            0      -273419   -2137.3431    95.702039    103.11501    98.888863    4.1092732    66728.468    531.35258 
15972000    400.14066   -275456.32            0   -273420.28   -1955.9885    95.702039    103.11501    98.888863    3.4514035    66735.247    524.62702 
15973000     397.3621   -275449.07            0   -273427.16    -2026.166    95.702039    103.11501    98.888863    3.9432201     66742.35    517.90395 
15974000    399.03684   -275443.12            0   -273412.69    -2006.763    95.702039    103.11501    98.888863    3.4536015    66748.956    511.17701 
15975000    400.07285   -275456.59            0   -273420.89   -2080.6079    95.702039    103.11501    98.888863    3.9479789    66755.762    504.45161 
15976000    403.06484   -275467.51            0   -273416.59   -2250.7546    95.702039    103.11501    98.888863    3.5940052    66762.265    497.72391 
15977000    402.59269    -275449.4            0   -273400.88   -2067.3754    95.702039    103.11501    98.888863    3.3655438    66768.719    490.99592 
15978000     399.8305   -275454.34            0   -273419.88   -2026.0814    95.702039    103.11501    98.888863    3.7138563    66775.416    484.26974 
15979000    401.74984   -275439.15            0   -273394.92   -1898.6352    95.702039    103.11501    98.888863    3.7245927    66782.405    477.54565 
15980000    400.18823   -275463.09            0    -273426.8   -1884.4311    95.702039    103.11501    98.888863    4.0549405    66789.003    470.81875 
15981000    398.51267   -275478.12            0   -273450.36   -2230.7488    95.702039    103.11501    98.888863    3.8114259    66795.806     464.0933 
15982000    400.11327   -275449.76            0   -273413.85   -2058.5556    95.702039    103.11501    98.888863    3.9804537    66802.333    457.36595 
15983000    397.66062   -275474.78            0   -273451.36   -2110.8912    95.702039    103.11501    98.888863    3.1525394     66808.82    450.63837 
15984000    401.41648   -275437.58            0   -273395.04   -2183.7205    95.702039    103.11501    98.888863    3.5719442    66815.578    443.91264 
15985000    400.83167   -275446.93            0   -273407.37   -1960.6309    95.702039    103.11501    98.888863    3.4639952    66822.621    437.18876 
15986000    400.83648   -275476.22            0   -273436.63   -1864.5004    95.702039    103.11501    98.888863    3.5165056     66829.17    430.46164 
15987000    399.94018   -275457.18            0   -273422.16   -2092.0464    95.702039    103.11501    98.888863     3.133047    66835.856    423.73543 
15988000    398.64629   -275459.84            0    -273431.4   -2239.0295    95.702039    103.11501    98.888863    3.3564479    66842.412     417.0084 
15989000    402.78943   -275464.15            0   -273414.63   -2151.5951    95.702039    103.11501    98.888863    3.7376905    66849.063    410.28201 
15990000    396.14229   -275461.83            0   -273446.13   -2072.2571    95.702039    103.11501    98.888863     4.048499    66855.806    403.55617 
15991000    399.68769   -275442.94            0    -273409.2   -1921.4593    95.702039    103.11501    98.888863    3.0500695    66862.876    396.83228 
15992000    399.38908   -275433.61            0   -273401.39   -2167.7347    95.702039    103.11501    98.888863    3.7719018    66869.463     390.1055 
15993000     404.1849   -275441.66            0   -273385.03   -2251.3943    95.702039    103.11501    98.888863    3.2388945    66876.207    383.37964 
15994000    400.80398   -275450.42            0      -273411   -2048.1348    95.702039    103.11501    98.888863    3.4279885    66882.654    376.65212 
15995000    396.81565   -275450.47            0   -273431.34   -2266.0677    95.702039    103.11501    98.888863    3.6981928    66889.193    369.92515 
15996000    398.09846   -275441.72            0   -273416.06   -1965.4563    95.702039    103.11501    98.888863    3.9103564    66896.002    363.19969 
15997000    401.81619   -275462.16            0   -273417.59    -2089.506    95.702039    103.11501    98.888863    3.3961489     66903.04    356.47543 
15998000    396.94825   -275453.05            0   -273433.25   -2128.4998    95.702039    103.11501    98.888863    3.3324594    66909.718    349.74923 
15999000    400.46715   -275446.09            0   -273408.39   -2091.9406    95.702039    103.11501    98.888863    3.5922161    66916.624     343.0242 
16000000    395.35486   -275465.17            0   -273453.48   -1997.3055    95.702039    103.11501    98.888863    3.6625066    66923.326    336.29812 
16001000    399.96135   -275441.09            0   -273405.96      -2009.3    95.702039    103.11501    98.888863    4.3899266    66929.855    329.57119 
16002000    399.54539   -275466.29            0   -273433.28   -2029.9183    95.702039    103.11501    98.888863    3.7310346    66936.773    322.84617 
16003000     401.2807   -275449.31            0   -273407.46   -1898.9196    95.702039    103.11501    98.888863    3.4410264    66943.766    316.12147 
16004000    399.37064   -275450.28            0   -273418.15   -2086.3417    95.702039    103.11501    98.888863    3.5499297    66950.479    309.39542 
16005000     398.4383   -275443.83            0   -273416.45   -2014.5543    95.702039    103.11501    98.888863    3.4675763    66957.246    302.66962 
16006000    401.77871   -275446.04            0   -273401.66   -2165.6304    95.702039    103.11501    98.888863    4.1032605    66963.795    295.94285 
16007000    398.26475   -275454.95            0   -273428.45   -2071.9677    95.702039    103.11501    98.888863     3.651498    66970.291    289.21588 
16008000    399.56127   -275445.68            0   -273412.59   -1748.4408    95.702039    103.11501    98.888863    3.3797301    66977.137    282.49043 
16009000    399.12776   -275446.56            0   -273415.67   -1848.2561    95.702039    103.11501    98.888863    3.5103059     66984.02    275.76512 
16010000    397.68959   -275438.71            0   -273415.14   -2006.4914    95.702039    103.11501    98.888863    3.3887185    66990.749    269.03915 
16011000    397.66334   -275461.44            0   -273437.99   -2063.9937    95.702039    103.11501    98.888863     3.548582    66997.389    262.31284 
16012000     400.8408   -275460.25            0   -273420.64   -1921.1494    95.702039    103.11501    98.888863    3.2706872    67003.982    255.58636 
16013000     398.9314    -275457.4            0    -273427.5   -1945.8153    95.702039    103.11501    98.888863    3.3172789    67010.465     248.8595 
16014000    400.26186   -275439.95            0   -273403.29   -2005.2621    95.702039    103.11501    98.888863    3.6067173    67017.419    242.13439 
16015000     399.3953   -275452.01            0   -273419.76    -2199.472    95.702039    103.11501    98.888863    3.1795249    67024.371    235.40923 
16016000    401.77133   -275437.25            0   -273392.91   -2232.0142    95.702039    103.11501    98.888863    3.5091938    67030.961    228.68279 
16017000    400.46733   -275455.19            0   -273417.48    -2125.092    95.702039    103.11501    98.888863    4.2147508    67037.739      221.957 
16018000    399.57185   -275466.55            0    -273433.4   -2132.0405    95.702039    103.11501    98.888863    3.5368644    67044.283    215.23044 
16019000     399.3986   -275441.07            0    -273408.8   -1915.7004    95.702039    103.11501    98.888863    3.4263906    67050.883     208.5041 
16020000    400.12445   -275445.97            0      -273410   -1844.8362    95.702039    103.11501    98.888863    3.3307678    67057.773    201.77866 
16021000     398.2587   -275450.68            0   -273424.21   -2008.2079    95.702039    103.11501    98.888863     3.398061    67064.642    195.05312 
16022000    399.57851   -275467.73            0   -273434.55   -1917.5931    95.702039    103.11501    98.888863    4.0276532    67071.369    188.32715 
16023000     399.1349   -275454.89            0   -273423.97   -1868.3545    95.702039    103.11501    98.888863     3.556529    67078.015    181.60096 
16024000     399.8504   -275431.46            0   -273396.89   -2288.7337    95.702039    103.11501    98.888863    4.0459476    67084.494    174.87436 
16025000    399.03955   -275440.67            0   -273410.23   -1951.4505    95.702039    103.11501    98.888863    3.4211756    67091.043    168.14798 
16026000    399.40389    -275467.6            0    -273435.3    -1671.395    95.702039    103.11501    98.888863    3.5393344    67098.102    161.42286 
16027000    400.15219   -275461.27            0   -273425.16   -1705.4569    95.702039    103.11501    98.888863    3.4014987     67104.88    154.69703 
16028000    400.93723   -275466.63            0   -273426.53    -2015.836    95.702039    103.11501    98.888863    3.6906009    67111.534    147.97091 
16029000    397.95607   -275449.66            0   -273424.73   -1937.6661    95.702039    103.11501    98.888863    3.9463025    67118.191    141.24482 
16030000    399.85777    -275447.2            0   -273412.59   -2206.2792    95.702039    103.11501    98.888863    3.3375281    67124.635    134.51831 
16031000    398.19285   -275460.45            0   -273434.32   -1981.3219    95.702039    103.11501    98.888863     3.433942    67131.122    127.79194 
16032000    400.00376   -275453.97            0   -273418.62   -1984.8608    95.702039    103.11501    98.888863     3.612375     67138.09    121.06648 
16033000     400.2551   -275471.15            0   -273434.52   -1927.5874    95.702039    103.11501    98.888863    3.6932261    67144.941    114.34078 
16034000    400.67352   -275454.11            0   -273415.35   -2244.5445    95.702039    103.11501    98.888863    3.6445606    67151.639    107.61481 
16035000    402.83589   -275458.22            0   -273408.46   -2057.1056    95.702039    103.11501    98.888863    3.3799765    67158.324    100.88882 
16036000    399.27709   -275459.48            0   -273427.82   -1941.3783    95.702039    103.11501    98.888863    3.6935801    67164.936    94.162738 
16037000    399.70374   -275440.13            0   -273406.31   -1853.6623    95.702039    103.11501    98.888863    3.3666633    67171.438    87.436537 
16038000    400.40891   -275448.89            0   -273411.48   -2065.7968    95.702039    103.11501    98.888863    3.4139357    67178.435    80.710976 
16039000    401.01146   -275452.65            0   -273412.18   -1913.5434    95.702039    103.11501    98.888863     3.360199    67185.271    73.985182 
16040000    398.87182   -275456.37            0   -273426.78   -1992.3179    95.702039    103.11501    98.888863     4.548617    67191.947    67.259206 
16041000    400.46597   -275441.19            0   -273403.49    -1842.066    95.702039    103.11501    98.888863    3.6303603    67198.571    60.533194 
16042000    399.40308   -275422.91            0   -273390.62   -1836.1014    95.702039    103.11501    98.888863    3.5894356    67205.148    53.807164 
16043000    399.49063   -275448.39            0   -273415.65   -2097.5036    95.702039    103.11501    98.888863    3.3864554    67211.677    47.081131 
16044000    402.81908   -275443.53            0   -273393.86   -1979.3292    95.702039    103.11501    98.888863    3.4786071    67218.746    40.355461 
16045000    401.19633   -275460.52            0    -273419.1    -1827.831    95.702039    103.11501    98.888863     3.730998    67225.609    33.629619 
16046000      397.362   -275446.01            0    -273424.1   -1986.7373    95.702039    103.11501    98.888863    3.5215297    67232.312    26.903686 
16047000     398.5949   -275455.27            0   -273427.09   -1902.6808    95.702039    103.11501    98.888863    3.2386994     67238.97    20.177744 
16048000    399.99697   -275443.28            0   -273407.96   -1967.1388    95.702039    103.11501    98.888863    3.8313047    67245.458    13.451782 
16049000    401.19625   -275456.24            0   -273414.83   -1983.3835    95.702039    103.11501    98.888863    3.8475641    67251.999    6.7258725 
16050000     398.0206    -275450.1            0   -273424.84   -1957.5636    95.702039    103.11501    98.888863    3.5887977    67258.971            0 
Loop time of 67259 on 160 procs for 10000000 steps with 39366 atoms

Performance: 12.846 ns/day, 1.868 hours/ns, 148.679 timesteps/s
99.0% CPU use with 160 MPI tasks x 1 OpenMP threads

MPI task timing breakdown:
Section |  min time  |  avg time  |  max time  |%varavg| %total
---------------------------------------------------------------
Pair    | 13985      | 15227      | 17602      | 483.6 | 22.64
Kspace  | 40085      | 42354      | 43711      | 278.0 | 62.97
Neigh   | 517.43     | 573.39     | 632.77     |  91.1 |  0.85
Comm    | 7046.4     | 7490.9     | 8182.7     | 242.2 | 11.14
Output  | 329.26     | 329.31     | 329.31     |   0.0 |  0.49
Modify  | 952.39     | 1121.5     | 1326       | 285.5 |  1.67
Other   |            | 163.6      |            |       |  0.24

Nlocal:    246.037 ave 264 max 233 min
Histogram: 9 20 23 28 24 17 23 8 6 2
Nghost:    3841.34 ave 3903 max 3772 min
Histogram: 4 6 10 27 20 33 25 19 8 8
Neighs:    56925.7 ave 61877 max 52698 min
Histogram: 5 10 25 26 28 24 20 12 6 4

Total # of neighbors = 9108118
Ave neighs/atom = 231.37
Neighbor list builds = 283988
Dangerous builds = 0

# Final Commands
variable        final_energy equal etotal
print           "final_energy: ${'final_energy'}"
ERROR on proc 0: Substitution for illegal variable 'final_energy' (../input.cpp:553)
Last command: final_energy: ${'final_energy'
