       N       E                     dE             d eps       ncg     rms          rms(c)
DAV:   1     0.484932903965E+04    0.48493E+04   -0.15016E+05  3208   0.188E+03
DAV:   2     0.620432932314E+03   -0.42289E+04   -0.41070E+04  3504   0.513E+02
DAV:   3    -0.129014283750E+03   -0.74945E+03   -0.70253E+03  4376   0.208E+02
DAV:   4    -0.232810717202E+03   -0.10380E+03   -0.10337E+03  5344   0.854E+01
DAV:   5    -0.245365511788E+03   -0.12555E+02   -0.12524E+02  6312   0.325E+01    0.263E+01
DAV:   6    -0.233968402799E+03    0.11397E+02   -0.54770E+01  5584   0.270E+01    0.132E+01
DAV:   7    -0.233692453303E+03    0.27595E+00   -0.10842E+01  5928   0.101E+01    0.655E+00
DAV:   8    -0.233755538099E+03   -0.63085E-01   -0.23437E+00  5408   0.530E+00    0.264E+00
DAV:   9    -0.233742405420E+03    0.13133E-01   -0.43660E-01  5280   0.292E+00    0.162E+00
DAV:  10    -0.233731746007E+03    0.10659E-01   -0.12124E-01  5392   0.178E+00    0.731E-01
DAV:  11    -0.233728830392E+03    0.29156E-02   -0.26771E-02  5464   0.728E-01    0.243E-01
DAV:  12    -0.233729652644E+03   -0.82225E-03   -0.86905E-03  6256   0.321E-01    0.182E-01
DAV:  13    -0.233729617427E+03    0.35217E-04   -0.24714E-03  4920   0.248E-01    0.836E-02
DAV:  14    -0.233729678979E+03   -0.61552E-04   -0.85351E-04  5952   0.841E-02    0.409E-02
DAV:  15    -0.233729689597E+03   -0.10617E-04   -0.10439E-04  5640   0.322E-02    0.177E-02
DAV:  16    -0.233729693514E+03   -0.39170E-05   -0.41626E-05  3912   0.228E-02    0.111E-02
DAV:  17    -0.233729695008E+03   -0.14940E-05   -0.32067E-05  4760   0.123E-02    0.912E-03
DAV:  18    -0.233729695424E+03   -0.41612E-06   -0.42133E-06  3080   0.542E-03
   1 F= -.23372970E+03 E0= -.23372970E+03  d E =-.233730E+03
       N       E                     dE             d eps       ncg     rms          rms(c)
DAV:   1    -0.233550555481E+03    0.17914E+00   -0.16258E+01  3640   0.195E+01    0.185E+00
DAV:   2    -0.233851634163E+03   -0.30108E+00   -0.36773E+00  4184   0.455E+00    0.101E+00
DAV:   3    -0.233847486787E+03    0.41474E-02   -0.13485E-01  5016   0.103E+00    0.710E-01
DAV:   4    -0.233842293722E+03    0.51931E-02   -0.15666E-02  4912   0.344E-01    0.330E-01
DAV:   5    -0.233841111063E+03    0.11827E-02   -0.48915E-03  4792   0.176E-01    0.144E-01
DAV:   6    -0.233841083040E+03    0.28023E-04   -0.10048E-03  5728   0.868E-02    0.131E-01
DAV:   7    -0.233841064135E+03    0.18905E-04   -0.28018E-04  5352   0.403E-02    0.633E-02
DAV:   8    -0.233841044857E+03    0.19278E-04   -0.38238E-05  5600   0.170E-02    0.306E-02
DAV:   9    -0.233841040782E+03    0.40748E-05   -0.15952E-05  4648   0.105E-02    0.104E-02
DAV:  10    -0.233841041239E+03   -0.45605E-06   -0.12416E-06  2216   0.442E-03
   2 F= -.23384104E+03 E0= -.23384104E+03  d E =-.111346E+00
       N       E                     dE             d eps       ncg     rms          rms(c)
DAV:   1    -0.233831350101E+03    0.96907E-02   -0.11165E+00  4128   0.514E+00    0.563E-01
DAV:   2    -0.233849218020E+03   -0.17868E-01   -0.22075E-01  3960   0.103E+00    0.244E-01
DAV:   3    -0.233849286119E+03   -0.68099E-04   -0.10338E-02  5336   0.275E-01    0.169E-01
DAV:   4    -0.233849020565E+03    0.26555E-03   -0.89352E-04  5048   0.836E-02    0.738E-02
DAV:   5    -0.233848967711E+03    0.52855E-04   -0.23380E-04  4768   0.402E-02    0.325E-02
DAV:   6    -0.233848961721E+03    0.59902E-05   -0.50768E-05  5800   0.194E-02    0.269E-02
DAV:   7    -0.233848958983E+03    0.27376E-05   -0.12369E-05  4032   0.867E-03    0.120E-02
DAV:   8    -0.233848955358E+03    0.36248E-05   -0.18644E-06  2472   0.527E-03    0.395E-03
DAV:   9    -0.233848954784E+03    0.57392E-06   -0.10528E-06  1984   0.435E-03
   3 F= -.23384895E+03 E0= -.23384895E+03  d E =-.119259E+00
       N       E                     dE             d eps       ncg     rms          rms(c)
DAV:   1    -0.233767816673E+03    0.81139E-01   -0.43718E+00  3592   0.102E+01    0.993E-01
DAV:   2    -0.233849536151E+03   -0.81719E-01   -0.99595E-01  4112   0.234E+00    0.508E-01
DAV:   3    -0.233848668976E+03    0.86717E-03   -0.39683E-02  5000   0.546E-01    0.352E-01
DAV:   4    -0.233847271332E+03    0.13976E-02   -0.43461E-03  4944   0.178E-01    0.157E-01
DAV:   5    -0.233846995981E+03    0.27535E-03   -0.11953E-03  4824   0.871E-02    0.718E-02
DAV:   6    -0.233846980491E+03    0.15490E-04   -0.24247E-04  5728   0.437E-02    0.624E-02
DAV:   7    -0.233846972559E+03    0.79323E-05   -0.72341E-05  5024   0.204E-02    0.296E-02
DAV:   8    -0.233846965341E+03    0.72179E-05   -0.99225E-06  4336   0.839E-03    0.127E-02
DAV:   9    -0.233846963851E+03    0.14904E-05   -0.53741E-06  3536   0.627E-03    0.471E-03
DAV:  10    -0.233846964088E+03   -0.23757E-06   -0.72436E-07  1984   0.372E-03
   4 F= -.23384696E+03 E0= -.23384696E+03  d E =-.117269E+00
       N       E                     dE             d eps       ncg     rms          rms(c)
DAV:   1    -0.233819481505E+03    0.27482E-01   -0.16927E+00  3616   0.633E+00    0.627E-01
DAV:   2    -0.233851905769E+03   -0.32424E-01   -0.39328E-01  4208   0.148E+00    0.314E-01
DAV:   3    -0.233851355474E+03    0.55030E-03   -0.14588E-02  5104   0.330E-01    0.215E-01
DAV:   4    -0.233850814929E+03    0.54054E-03   -0.16691E-03  4800   0.106E-01    0.971E-02
DAV:   5    -0.233850729167E+03    0.85762E-04   -0.46056E-04  4840   0.559E-02    0.454E-02
DAV:   6    -0.233850734156E+03   -0.49892E-05   -0.86110E-05  5768   0.251E-02    0.378E-02
DAV:   7    -0.233850738728E+03   -0.45721E-05   -0.23636E-05  4528   0.118E-02    0.177E-02
DAV:   8    -0.233850740302E+03   -0.15737E-05   -0.25121E-06  2600   0.559E-03    0.840E-03
DAV:   9    -0.233850740840E+03   -0.53824E-06   -0.29536E-06  2632   0.585E-03
   5 F= -.23385074E+03 E0= -.23385074E+03  d E =-.121045E+00
       N       E                     dE             d eps       ncg     rms          rms(c)
DAV:   1    -0.233810595181E+03    0.40145E-01   -0.90778E+00  3408   0.108E+01    0.122E+00
DAV:   2    -0.233895621583E+03   -0.85026E-01   -0.10667E+00  4312   0.276E+00    0.624E-01
DAV:   3    -0.233892833391E+03    0.27882E-02   -0.35941E-02  5616   0.545E-01    0.458E-01
DAV:   4    -0.233891219178E+03    0.16142E-02   -0.55298E-03  5336   0.227E-01    0.176E-01
DAV:   5    -0.233890983330E+03    0.23585E-03   -0.12310E-03  5136   0.927E-02    0.734E-02
DAV:   6    -0.233891000418E+03   -0.17088E-04   -0.22136E-04  5680   0.414E-02    0.520E-02
DAV:   7    -0.233891013499E+03   -0.13082E-04   -0.42829E-05  5536   0.179E-02    0.221E-02
DAV:   8    -0.233891015591E+03   -0.20914E-05   -0.61913E-06  3912   0.755E-03    0.119E-02
DAV:   9    -0.233891016311E+03   -0.72050E-06   -0.44963E-06  3080   0.608E-03
   6 F= -.23389102E+03 E0= -.23389102E+03  d E =-.402755E-01
       N       E                     dE             d eps       ncg     rms          rms(c)
DAV:   1    -0.233854454399E+03    0.36561E-01   -0.55134E+00  3440   0.847E+00    0.949E-01
DAV:   2    -0.233906351721E+03   -0.51897E-01   -0.65158E-01  4240   0.213E+00    0.469E-01
DAV:   3    -0.233904861597E+03    0.14901E-02   -0.22684E-02  5592   0.444E-01    0.350E-01
DAV:   4    -0.233903820915E+03    0.10407E-02   -0.37138E-03  5336   0.183E-01    0.131E-01
DAV:   5    -0.233903712170E+03    0.10874E-03   -0.77722E-04  5208   0.726E-02    0.587E-02
DAV:   6    -0.233903724823E+03   -0.12653E-04   -0.12514E-04  5872   0.330E-02    0.427E-02
DAV:   7    -0.233903733458E+03   -0.86352E-05   -0.24062E-05  5136   0.143E-02    0.160E-02
DAV:   8    -0.233903736585E+03   -0.31272E-05   -0.30688E-06  2872   0.671E-03    0.729E-03
DAV:   9    -0.233903737094E+03   -0.50914E-06   -0.24021E-06  2320   0.619E-03
   7 F= -.23390374E+03 E0= -.23390374E+03  d E =-.529963E-01
       N       E                     dE             d eps       ncg     rms          rms(c)
DAV:   1    -0.233693318803E+03    0.21042E+00   -0.22124E+01  3408   0.169E+01    0.191E+00
DAV:   2    -0.233903072185E+03   -0.20975E+00   -0.26234E+00  4296   0.436E+00    0.965E-01
DAV:   3    -0.233896931963E+03    0.61402E-02   -0.90999E-02  5624   0.888E-01    0.712E-01
DAV:   4    -0.233892715141E+03    0.42168E-02   -0.14621E-02  5392   0.359E-01    0.271E-01
DAV:   5    -0.233892191404E+03    0.52374E-03   -0.31997E-03  5160   0.150E-01    0.118E-01
DAV:   6    -0.233892216069E+03   -0.24665E-04   -0.50975E-04  5872   0.643E-02    0.857E-02
DAV:   7    -0.233892234919E+03   -0.18849E-04   -0.87954E-05  5472   0.272E-02    0.332E-02
DAV:   8    -0.233892240864E+03   -0.59450E-05   -0.17740E-05  5576   0.128E-02    0.155E-02
DAV:   9    -0.233892241221E+03   -0.35741E-06   -0.81102E-06  4248   0.795E-03
   8 F= -.23389224E+03 E0= -.23389224E+03  d E =-.415004E-01
       N       E                     dE             d eps       ncg     rms          rms(c)
DAV:   1    -0.233798742239E+03    0.93499E-01   -0.11906E+01  3416   0.125E+01    0.136E+00
DAV:   2    -0.233911351091E+03   -0.11261E+00   -0.14125E+00  4216   0.318E+00    0.694E-01
DAV:   3    -0.233908754820E+03    0.25963E-02   -0.53982E-02  5592   0.664E-01    0.528E-01
DAV:   4    -0.233906466145E+03    0.22887E-02   -0.79626E-03  5352   0.286E-01    0.202E-01
DAV:   5    -0.233906080984E+03    0.38516E-03   -0.18300E-03  5000   0.109E-01    0.861E-02
DAV:   6    -0.233906064610E+03    0.16374E-04   -0.31185E-04  5768   0.516E-02    0.670E-02
DAV:   7    -0.233906053479E+03    0.11131E-04   -0.58081E-05  5640   0.219E-02    0.249E-02
DAV:   8    -0.233906046447E+03    0.70320E-05   -0.10709E-05  4728   0.972E-03    0.111E-02
DAV:   9    -0.233906045391E+03    0.10564E-05   -0.50320E-06  3280   0.668E-03    0.348E-03
DAV:  10    -0.233906045500E+03   -0.10930E-06   -0.92081E-07  2080   0.396E-03
   9 F= -.23390605E+03 E0= -.23390605E+03  d E =-.553047E-01
       N       E                     dE             d eps       ncg     rms          rms(c)
DAV:   1    -0.233881491198E+03    0.24554E-01   -0.11121E+01  3456   0.100E+01    0.119E+00
DAV:   2    -0.233948838260E+03   -0.67347E-01   -0.86657E-01  4376   0.270E+00    0.563E-01
DAV:   3    -0.233946217449E+03    0.26208E-02   -0.36229E-02  5904   0.542E-01    0.449E-01
DAV:   4    -0.233944789474E+03    0.14280E-02   -0.46596E-03  5360   0.228E-01    0.187E-01
DAV:   5    -0.233944340352E+03    0.44912E-03   -0.15566E-03  5016   0.100E-01    0.742E-02
DAV:   6    -0.233944333494E+03    0.68584E-05   -0.27511E-04  5688   0.389E-02    0.449E-02
DAV:   7    -0.233944329058E+03    0.44356E-05   -0.41487E-05  5560   0.176E-02    0.215E-02
DAV:   8    -0.233944325337E+03    0.37206E-05   -0.70709E-06  3888   0.840E-03    0.123E-02
DAV:   9    -0.233944324496E+03    0.84151E-06   -0.39173E-06  2840   0.629E-03
  10 F= -.23394432E+03 E0= -.23394432E+03  d E =-.382790E-01
       N       E                     dE             d eps       ncg     rms          rms(c)
DAV:   1    -0.233750904428E+03    0.19342E+00   -0.38856E+01  3456   0.187E+01    0.223E+00
DAV:   2    -0.233992679716E+03   -0.24178E+00   -0.31006E+00  4392   0.505E+00    0.105E+00
DAV:   3    -0.233985663023E+03    0.70167E-02   -0.15001E-01  5896   0.103E+00    0.852E-01
DAV:   4    -0.233980624867E+03    0.50382E-02   -0.16460E-02  5304   0.441E-01    0.363E-01
DAV:   5    -0.233978897135E+03    0.17277E-02   -0.59194E-03  5080   0.192E-01    0.141E-01
DAV:   6    -0.233978925414E+03   -0.28279E-04   -0.10955E-03  5664   0.760E-02    0.820E-02
DAV:   7    -0.233978927072E+03   -0.16584E-05   -0.15857E-04  5488   0.352E-02    0.394E-02
DAV:   8    -0.233978920844E+03    0.62281E-05   -0.33023E-05  5424   0.167E-02    0.215E-02
DAV:   9    -0.233978919223E+03    0.16205E-05   -0.14321E-05  4440   0.108E-02    0.622E-03
DAV:  10    -0.233978919467E+03   -0.24381E-06   -0.31789E-06  2688   0.516E-03
  11 F= -.23397892E+03 E0= -.23397892E+03  d E =-.728740E-01
       N       E                     dE             d eps       ncg     rms          rms(c)
DAV:   1    -0.233972615171E+03    0.63041E-02   -0.12879E+00  3456   0.340E+00    0.404E-01
DAV:   2    -0.233980319931E+03   -0.77048E-02   -0.99423E-02  4448   0.915E-01    0.190E-01
DAV:   3    -0.233979962105E+03    0.35783E-03   -0.37349E-03  5912   0.178E-01    0.150E-01
DAV:   4    -0.233979795988E+03    0.16612E-03   -0.53764E-04  5408   0.747E-02    0.613E-02
DAV:   5    -0.233979742685E+03    0.53303E-04   -0.16738E-04  5056   0.332E-02    0.247E-02
DAV:   6    -0.233979737079E+03    0.56058E-05   -0.29414E-05  5472   0.130E-02    0.150E-02
DAV:   7    -0.233979734353E+03    0.27258E-05   -0.28828E-06  2376   0.579E-03    0.754E-03
DAV:   8    -0.233979733179E+03    0.11743E-05   -0.96396E-07  1984   0.536E-03    0.336E-03
DAV:   9    -0.233979732889E+03    0.28963E-06   -0.64889E-07  1984   0.392E-03
  12 F= -.23397973E+03 E0= -.23397973E+03  d E =-.736874E-01
       N       E                     dE             d eps       ncg     rms          rms(c)
DAV:   1    -0.233903877758E+03    0.75855E-01   -0.10162E+01  3368   0.123E+01    0.114E+00
DAV:   2    -0.234001968982E+03   -0.98091E-01   -0.11349E+00  4312   0.308E+00    0.487E-01
DAV:   3    -0.234001178905E+03    0.79008E-03   -0.40971E-02  5768   0.610E-01    0.389E-01
DAV:   4    -0.234000166460E+03    0.10124E-02   -0.38251E-03  5584   0.184E-01    0.187E-01
DAV:   5    -0.233999652695E+03    0.51377E-03   -0.18227E-03  4720   0.117E-01    0.657E-02
DAV:   6    -0.233999683110E+03   -0.30416E-04   -0.47752E-04  4904   0.503E-02    0.552E-02
DAV:   7    -0.233999678415E+03    0.46955E-05   -0.81750E-05  5944   0.203E-02    0.270E-02
DAV:   8    -0.233999675668E+03    0.27463E-05   -0.83659E-06  4208   0.932E-03    0.138E-02
DAV:   9    -0.233999674188E+03    0.14806E-05   -0.27642E-06  2528   0.523E-03    0.742E-03
DAV:  10    -0.233999674101E+03    0.86824E-07   -0.11571E-06  2008   0.524E-03
  13 F= -.23399967E+03 E0= -.23399967E+03  d E =-.199412E-01
       N       E                     dE             d eps       ncg     rms          rms(c)
DAV:   1    -0.233985208927E+03    0.14465E-01   -0.17628E+00  3360   0.517E+00    0.471E-01
DAV:   2    -0.234002317195E+03   -0.17108E-01   -0.19788E-01  4320   0.127E+00    0.200E-01
DAV:   3    -0.234002154957E+03    0.16224E-03   -0.68933E-03  5720   0.252E-01    0.160E-01
DAV:   4    -0.234001975169E+03    0.17979E-03   -0.67391E-04  5688   0.740E-02    0.765E-02
DAV:   5    -0.234001887074E+03    0.88095E-04   -0.30825E-04  4720   0.478E-02    0.270E-02
DAV:   6    -0.234001890348E+03   -0.32739E-05   -0.79408E-05  4792   0.207E-02    0.236E-02
DAV:   7    -0.234001888558E+03    0.17903E-05   -0.14060E-05  5176   0.864E-03    0.112E-02
DAV:   8    -0.234001887325E+03    0.12324E-05   -0.11063E-06  2248   0.444E-03    0.615E-03
DAV:   9    -0.234001886837E+03    0.48874E-06   -0.58359E-07  1984   0.422E-03
  14 F= -.23400189E+03 E0= -.23400189E+03  d E =-.221539E-01
       N       E                     dE             d eps       ncg     rms          rms(c)
DAV:   1    -0.233927199342E+03    0.74688E-01   -0.11727E+01  3328   0.118E+01    0.120E+00
DAV:   2    -0.234022572912E+03   -0.95374E-01   -0.10735E+00  4352   0.318E+00    0.522E-01
DAV:   3    -0.234021502078E+03    0.10708E-02   -0.38083E-02  5776   0.600E-01    0.410E-01
DAV:   4    -0.234020586726E+03    0.91535E-03   -0.37224E-03  5616   0.178E-01    0.195E-01
DAV:   5    -0.234020068690E+03    0.51804E-03   -0.20077E-03  4584   0.122E-01    0.646E-02
DAV:   6    -0.234020123282E+03   -0.54592E-04   -0.64481E-04  4768   0.560E-02    0.566E-02
DAV:   7    -0.234020119766E+03    0.35157E-05   -0.95831E-05  5768   0.216E-02    0.312E-02
DAV:   8    -0.234020119370E+03    0.39606E-06   -0.11445E-05  4504   0.119E-02    0.154E-02
DAV:   9    -0.234020119088E+03    0.28200E-06   -0.88871E-06  3896   0.807E-03
  15 F= -.23402012E+03 E0= -.23402012E+03  d E =-.182323E-01
       N       E                     dE             d eps       ncg     rms          rms(c)
DAV:   1    -0.234000159968E+03    0.19959E-01   -0.28242E+00  3328   0.576E+00    0.594E-01
DAV:   2    -0.234023195637E+03   -0.23036E-01   -0.25927E-01  4456   0.156E+00    0.261E-01
DAV:   3    -0.234022794810E+03    0.40083E-03   -0.79932E-03  5752   0.285E-01    0.204E-01
DAV:   4    -0.234022579606E+03    0.21520E-03   -0.83756E-04  5648   0.848E-02    0.983E-02
DAV:   5    -0.234022449970E+03    0.12964E-03   -0.48530E-04  4536   0.612E-02    0.330E-02
DAV:   6    -0.234022466173E+03   -0.16203E-04   -0.18539E-04  4736   0.296E-02    0.272E-02
DAV:   7    -0.234022465820E+03    0.35328E-06   -0.25783E-05  5168   0.114E-02    0.155E-02
DAV:   8    -0.234022466139E+03   -0.31984E-06   -0.25244E-06  2616   0.620E-03
  16 F= -.23402247E+03 E0= -.23402247E+03  d E =-.205793E-01
       N       E                     dE             d eps       ncg     rms          rms(c)
DAV:   1    -0.233965383889E+03    0.57082E-01   -0.10944E+01  3328   0.108E+01    0.112E+00
DAV:   2    -0.234040445979E+03   -0.75062E-01   -0.87987E-01  4392   0.282E+00    0.515E-01
DAV:   3    -0.234038651670E+03    0.17943E-02   -0.30247E-02  5832   0.532E-01    0.407E-01
DAV:   4    -0.234037519982E+03    0.11317E-02   -0.36905E-03  5392   0.192E-01    0.180E-01
DAV:   5    -0.234037119451E+03    0.40053E-03   -0.15480E-03  5032   0.102E-01    0.609E-02
DAV:   6    -0.234037126856E+03   -0.74050E-05   -0.30091E-04  5296   0.401E-02    0.477E-02
DAV:   7    -0.234037123308E+03    0.35478E-05   -0.48802E-05  5888   0.176E-02    0.233E-02
DAV:   8    -0.234037118147E+03    0.51609E-05   -0.79252E-06  4264   0.100E-02    0.136E-02
DAV:   9    -0.234037116802E+03    0.13455E-05   -0.25433E-06  2392   0.625E-03    0.648E-03
DAV:  10    -0.234037116849E+03   -0.47112E-07   -0.13298E-06  2056   0.519E-03
  17 F= -.23403712E+03 E0= -.23403712E+03  d E =-.146507E-01
       N       E                     dE             d eps       ncg     rms          rms(c)
DAV:   1    -0.234028709991E+03    0.84068E-02   -0.15281E+00  3328   0.404E+00    0.420E-01
DAV:   2    -0.234038961673E+03   -0.10252E-01   -0.12032E-01  4384   0.105E+00    0.195E-01
DAV:   3    -0.234038687115E+03    0.27456E-03   -0.38895E-03  5784   0.197E-01    0.152E-01
DAV:   4    -0.234038527060E+03    0.16005E-03   -0.51968E-04  5448   0.706E-02    0.655E-02
DAV:   5    -0.234038473285E+03    0.53776E-04   -0.20413E-04  5064   0.373E-02    0.225E-02
DAV:   6    -0.234038471174E+03    0.21100E-05   -0.37744E-05  5040   0.143E-02    0.180E-02
DAV:   7    -0.234038469109E+03    0.20652E-05   -0.49789E-06  3480   0.645E-03    0.921E-03
DAV:   8    -0.234038467338E+03    0.17716E-05   -0.11049E-06  2016   0.506E-03    0.431E-03
DAV:   9    -0.234038466938E+03    0.39925E-06   -0.83042E-07  1992   0.449E-03
  18 F= -.23403847E+03 E0= -.23403847E+03  d E =-.160008E-01
       N       E                     dE             d eps       ncg     rms          rms(c)
DAV:   1    -0.233964682291E+03    0.73785E-01   -0.12054E+01  3328   0.122E+01    0.115E+00
DAV:   2    -0.234051541852E+03   -0.86860E-01   -0.10069E+00  4328   0.308E+00    0.520E-01
DAV:   3    -0.234049966001E+03    0.15759E-02   -0.34188E-02  5872   0.580E-01    0.402E-01
DAV:   4    -0.234048831988E+03    0.11340E-02   -0.37727E-03  5472   0.194E-01    0.181E-01
DAV:   5    -0.234048383622E+03    0.44837E-03   -0.18195E-03  4936   0.115E-01    0.583E-02
DAV:   6    -0.234048405630E+03   -0.22008E-04   -0.35129E-04  4808   0.440E-02    0.545E-02
DAV:   7    -0.234048404692E+03    0.93877E-06   -0.58857E-05  6088   0.175E-02    0.290E-02
DAV:   8    -0.234048400448E+03    0.42434E-05   -0.69863E-06  3952   0.934E-03    0.158E-02
DAV:   9    -0.234048399418E+03    0.10300E-05   -0.21155E-06  2152   0.520E-03    0.782E-03
DAV:  10    -0.234048399391E+03    0.27558E-07   -0.92020E-07  2000   0.518E-03
  19 F= -.23404840E+03 E0= -.23404840E+03  d E =-.993245E-02
       N       E                     dE             d eps       ncg     rms          rms(c)
DAV:   1    -0.234048240792E+03    0.15863E-03   -0.26791E-02  3384   0.574E-01    0.534E-02
DAV:   2    -0.234048429687E+03   -0.18890E-03   -0.22077E-03  4368   0.144E-01    0.243E-02
DAV:   3    -0.234048425349E+03    0.43385E-05   -0.67837E-05  5744   0.270E-02    0.187E-02
DAV:   4    -0.234048423129E+03    0.22200E-05   -0.80280E-06  4344   0.850E-03    0.826E-03
DAV:   5    -0.234048422924E+03    0.20478E-06   -0.27756E-06  2288   0.546E-03
  20 F= -.23404842E+03 E0= -.23404842E+03  d E =-.995599E-02
       N       E                     dE             d eps       ncg     rms          rms(c)
DAV:   1    -0.234008428257E+03    0.39995E-01   -0.62992E+00  3344   0.913E+00    0.846E-01
DAV:   2    -0.234057251500E+03   -0.48823E-01   -0.56763E-01  4256   0.228E+00    0.378E-01
DAV:   3    -0.234056486873E+03    0.76463E-03   -0.18611E-02  5808   0.432E-01    0.287E-01
DAV:   4    -0.234055786150E+03    0.70072E-03   -0.22690E-03  5432   0.139E-01    0.119E-01
DAV:   5    -0.234055623994E+03    0.16216E-03   -0.81707E-04  4992   0.812E-02    0.361E-02
DAV:   6    -0.234055638778E+03   -0.14784E-04   -0.16258E-04  5072   0.313E-02    0.452E-02
DAV:   7    -0.234055641083E+03   -0.23043E-05   -0.26174E-05  5272   0.119E-02    0.242E-02
DAV:   8    -0.234055641761E+03   -0.67844E-06   -0.31548E-06  2744   0.737E-03
  21 F= -.23405564E+03 E0= -.23405564E+03  d E =-.721884E-02
       N       E                     dE             d eps       ncg     rms          rms(c)
DAV:   1    -0.234055592784E+03    0.48299E-04   -0.76321E-03  3448   0.320E-01    0.264E-02
DAV:   2    -0.234055652159E+03   -0.59375E-04   -0.69126E-04  4288   0.795E-02    0.146E-02
DAV:   3    -0.234055651614E+03    0.54501E-06   -0.22336E-05  5544   0.151E-02    0.118E-02
DAV:   4    -0.234055650467E+03    0.11462E-05   -0.13980E-06  2176   0.473E-03    0.597E-03
DAV:   5    -0.234055649924E+03    0.54331E-06   -0.33325E-06  2528   0.524E-03
  22 F= -.23405565E+03 E0= -.23405565E+03  d E =-.722700E-02
       N       E                     dE             d eps       ncg     rms          rms(c)
DAV:   1    -0.234044181403E+03    0.11469E-01   -0.22744E+00  3336   0.515E+00    0.506E-01
DAV:   2    -0.234060819345E+03   -0.16638E-01   -0.18926E-01  4328   0.136E+00    0.228E-01
DAV:   3    -0.234060530698E+03    0.28865E-03   -0.61139E-03  5736   0.251E-01    0.176E-01
DAV:   4    -0.234060329727E+03    0.20097E-03   -0.73779E-04  5616   0.814E-02    0.782E-02
DAV:   5    -0.234060244861E+03    0.84866E-04   -0.34845E-04  4672   0.521E-02    0.234E-02
DAV:   6    -0.234060251740E+03   -0.68796E-05   -0.91541E-05  4872   0.228E-02    0.265E-02
DAV:   7    -0.234060250561E+03    0.11793E-05   -0.12830E-05  4928   0.832E-03    0.140E-02
DAV:   8    -0.234060249698E+03    0.86334E-06   -0.12887E-06  2072   0.479E-03
  23 F= -.23406025E+03 E0= -.23406025E+03  d E =-.459977E-02
       N       E                     dE             d eps       ncg     rms          rms(c)
DAV:   1    -0.234059775039E+03    0.47552E-03   -0.91243E-02  3344   0.103E+00    0.103E-01
DAV:   2    -0.234060443163E+03   -0.66812E-03   -0.75897E-03  4320   0.274E-01    0.446E-02
DAV:   3    -0.234060431416E+03    0.11747E-04   -0.24750E-04  5744   0.507E-02    0.343E-02
DAV:   4    -0.234060423243E+03    0.81726E-05   -0.29460E-05  5600   0.163E-02    0.149E-02
DAV:   5    -0.234060419445E+03    0.37978E-05   -0.13297E-05  4072   0.104E-02    0.455E-03
DAV:   6    -0.234060419456E+03   -0.10670E-07   -0.28913E-06  2400   0.517E-03
  24 F= -.23406042E+03 E0= -.23406042E+03  d E =-.476953E-02
       N       E                     dE             d eps       ncg     rms          rms(c)
DAV:   1    -0.234049947951E+03    0.10471E-01   -0.19624E+00  3336   0.464E+00    0.491E-01
DAV:   2    -0.234064321654E+03   -0.14374E-01   -0.16380E-01  4344   0.127E+00    0.224E-01
DAV:   3    -0.234064029446E+03    0.29221E-03   -0.51829E-03  5856   0.227E-01    0.173E-01
DAV:   4    -0.234063839323E+03    0.19012E-03   -0.63287E-04  5736   0.753E-02    0.766E-02
DAV:   5    -0.234063760399E+03    0.78924E-04   -0.31733E-04  4848   0.492E-02    0.213E-02
DAV:   6    -0.234063765645E+03   -0.52459E-05   -0.80383E-05  4752   0.210E-02    0.250E-02
DAV:   7    -0.234063764502E+03    0.11431E-05   -0.10159E-05  4512   0.737E-03    0.136E-02
DAV:   8    -0.234063763252E+03    0.12497E-05   -0.14460E-06  2016   0.502E-03    0.730E-03
DAV:   9    -0.234063762876E+03    0.37629E-06   -0.11844E-06  1984   0.542E-03
  25 F= -.23406376E+03 E0= -.23406376E+03  d E =-.334342E-02
       N       E                     dE             d eps       ncg     rms          rms(c)
DAV:   1    -0.234063179126E+03    0.58413E-03   -0.10917E-01  3336   0.109E+00    0.117E-01
DAV:   2    -0.234063978399E+03   -0.79927E-03   -0.90668E-03  4448   0.300E-01    0.526E-02
DAV:   3    -0.234063961679E+03    0.16719E-04   -0.28765E-04  5760   0.537E-02    0.404E-02
DAV:   4    -0.234063950577E+03    0.11102E-04   -0.35751E-05  5672   0.178E-02    0.176E-02
DAV:   5    -0.234063945728E+03    0.48489E-05   -0.16717E-05  4424   0.114E-02    0.496E-03
DAV:   6    -0.234063945666E+03    0.62399E-07   -0.35385E-06  2488   0.525E-03
  26 F= -.23406395E+03 E0= -.23406395E+03  d E =-.352621E-02
       N       E                     dE             d eps       ncg     rms          rms(c)
DAV:   1    -0.234057576153E+03    0.63696E-02   -0.21444E+00  3328   0.405E+00    0.440E-01
DAV:   2    -0.234067916247E+03   -0.10340E-01   -0.11751E-01  4456   0.112E+00    0.195E-01
DAV:   3    -0.234067797305E+03    0.11894E-03   -0.47258E-03  5824   0.207E-01    0.150E-01
DAV:   4    -0.234067712649E+03    0.84656E-04   -0.49877E-04  5864   0.699E-02    0.657E-02
DAV:   5    -0.234067664826E+03    0.47823E-04   -0.22975E-04  5024   0.404E-02    0.219E-02
DAV:   6    -0.234067671450E+03   -0.66243E-05   -0.56593E-05  4632   0.171E-02    0.165E-02
DAV:   7    -0.234067672502E+03   -0.10516E-05   -0.77643E-06  4056   0.678E-03    0.879E-03
DAV:   8    -0.234067673195E+03   -0.69378E-06   -0.93024E-07  2040   0.430E-03
  27 F= -.23406767E+03 E0= -.23406767E+03  d E =-.372753E-02
       N       E                     dE             d eps       ncg     rms          rms(c)
DAV:   1    -0.234060807397E+03    0.68651E-02   -0.17166E+00  3328   0.362E+00    0.392E-01
DAV:   2    -0.234069170465E+03   -0.83631E-02   -0.94934E-02  4440   0.998E-01    0.175E-01
DAV:   3    -0.234069065838E+03    0.10463E-03   -0.37470E-03  5784   0.184E-01    0.135E-01
DAV:   4    -0.234068995922E+03    0.69916E-04   -0.40448E-04  5880   0.622E-02    0.593E-02
DAV:   5    -0.234068956608E+03    0.39314E-04   -0.18876E-04  5056   0.363E-02    0.196E-02
DAV:   6    -0.234068962074E+03   -0.54663E-05   -0.44837E-05  4592   0.151E-02    0.149E-02
DAV:   7    -0.234068962989E+03   -0.91508E-06   -0.55686E-06  3520   0.599E-03
  28 F= -.23406896E+03 E0= -.23406896E+03  d E =-.501732E-02
       N       E                     dE             d eps       ncg     rms          rms(c)
DAV:   1    -0.234061116121E+03    0.78460E-02   -0.22846E+00  3328   0.421E+00    0.381E-01
DAV:   2    -0.234071390489E+03   -0.10274E-01   -0.11440E-01  4480   0.104E+00    0.158E-01
DAV:   3    -0.234071398134E+03   -0.76454E-05   -0.48636E-03  5848   0.197E-01    0.122E-01
DAV:   4    -0.234071362563E+03    0.35571E-04   -0.41434E-04  5744   0.637E-02    0.564E-02
DAV:   5    -0.234071324107E+03    0.38456E-04   -0.21433E-04  4864   0.384E-02    0.205E-02
DAV:   6    -0.234071330181E+03   -0.60735E-05   -0.57738E-05  4616   0.172E-02    0.146E-02
DAV:   7    -0.234071329899E+03    0.28159E-06   -0.96829E-06  4280   0.711E-03
  29 F= -.23407133E+03 E0= -.23407133E+03  d E =-.236691E-02
       N       E                     dE             d eps       ncg     rms          rms(c)
DAV:   1    -0.234071300067E+03    0.30113E-04   -0.83389E-03  3408   0.254E-01    0.243E-02
DAV:   2    -0.234071337789E+03   -0.37722E-04   -0.42912E-04  4520   0.638E-02    0.869E-03
DAV:   3    -0.234071337917E+03   -0.12786E-06   -0.18145E-05  5656   0.123E-02    0.680E-03
DAV:   4    -0.234071337799E+03    0.11860E-06   -0.79166E-07  2088   0.404E-03
  30 F= -.23407134E+03 E0= -.23407134E+03  d E =-.237481E-02
       N       E                     dE             d eps       ncg     rms          rms(c)
DAV:   1    -0.234070687679E+03    0.65024E-03   -0.91402E-01  3280   0.259E+00    0.234E-01
DAV:   2    -0.234074262112E+03   -0.35744E-02   -0.41164E-02  4408   0.611E-01    0.114E-01
DAV:   3    -0.234074201673E+03    0.60438E-04   -0.15776E-03  5808   0.119E-01    0.850E-02
DAV:   4    -0.234074162845E+03    0.38828E-04   -0.18046E-04  5624   0.430E-02    0.364E-02
DAV:   5    -0.234074145221E+03    0.17624E-04   -0.65060E-05  5120   0.219E-02    0.118E-02
DAV:   6    -0.234074143718E+03    0.15030E-05   -0.14136E-05  4688   0.902E-03    0.105E-02
DAV:   7    -0.234074142578E+03    0.11406E-05   -0.10756E-06  2040   0.385E-03    0.604E-03
DAV:   8    -0.234074141774E+03    0.80352E-06   -0.61674E-07  2000   0.442E-03
  31 F= -.23407414E+03 E0= -.23407414E+03  d E =-.280398E-02
       N       E                     dE             d eps       ncg     rms          rms(c)
DAV:   1    -0.234073038423E+03    0.11042E-02   -0.60050E-01  3280   0.210E+00    0.190E-01
DAV:   2    -0.234075382466E+03   -0.23440E-02   -0.26948E-02  4496   0.496E-01    0.931E-02
DAV:   3    -0.234075340344E+03    0.42122E-04   -0.10156E-03  5744   0.958E-02    0.692E-02
DAV:   4    -0.234075314403E+03    0.25941E-04   -0.12283E-04  5608   0.352E-02    0.294E-02
DAV:   5    -0.234075302479E+03    0.11924E-04   -0.41631E-05  5184   0.176E-02    0.961E-03
DAV:   6    -0.234075300928E+03    0.15515E-05   -0.81661E-06  3552   0.732E-03    0.763E-03
DAV:   7    -0.234075299958E+03    0.96959E-06   -0.10614E-06  2008   0.417E-03
  32 F= -.23407530E+03 E0= -.23407530E+03  d E =-.396216E-02
       N       E                     dE             d eps       ncg     rms          rms(c)
DAV:   1    -0.234064202912E+03    0.11098E-01   -0.23993E+00  3280   0.420E+00    0.380E-01
DAV:   2    -0.234073602767E+03   -0.93999E-02   -0.10819E-01  4448   0.992E-01    0.186E-01
DAV:   3    -0.234073466155E+03    0.13661E-03   -0.43686E-03  5880   0.192E-01    0.139E-01
DAV:   4    -0.234073366044E+03    0.10011E-03   -0.47498E-04  5568   0.709E-02    0.599E-02
DAV:   5    -0.234073321809E+03    0.44235E-04   -0.17577E-04  5072   0.361E-02    0.191E-02
DAV:   6    -0.234073320881E+03    0.92830E-06   -0.39829E-05  5224   0.149E-02    0.169E-02
DAV:   7    -0.234073319208E+03    0.16728E-05   -0.37067E-06  2976   0.593E-03    0.101E-02
DAV:   8    -0.234073317702E+03    0.15062E-05   -0.12366E-06  2072   0.549E-03    0.462E-03
DAV:   9    -0.234073317366E+03    0.33628E-06   -0.96244E-07  1984   0.447E-03
  33 F= -.23407332E+03 E0= -.23407332E+03  d E =-.197957E-02
       N       E                     dE             d eps       ncg     rms          rms(c)
DAV:   1    -0.234069409577E+03    0.39081E-02   -0.15842E+00  3272   0.341E+00    0.310E-01
DAV:   2    -0.234075615506E+03   -0.62059E-02   -0.71687E-02  4416   0.816E-01    0.151E-01
DAV:   3    -0.234075509803E+03    0.10570E-03   -0.27126E-03  5736   0.157E-01    0.111E-01
DAV:   4    -0.234075448305E+03    0.61497E-04   -0.31994E-04  5632   0.562E-02    0.465E-02
DAV:   5    -0.234075433153E+03    0.15153E-04   -0.10355E-04  5080   0.278E-02    0.153E-02
DAV:   6    -0.234075438593E+03   -0.54399E-05   -0.22652E-05  5280   0.114E-02    0.133E-02
DAV:   7    -0.234075440258E+03   -0.16656E-05   -0.16383E-06  2152   0.487E-03    0.774E-03
DAV:   8    -0.234075441142E+03   -0.88358E-06   -0.94043E-07  2032   0.520E-03
  34 F= -.23407544E+03 E0= -.23407544E+03  d E =-.410334E-02
       N       E                     dE             d eps       ncg     rms          rms(c)
DAV:   1    -0.234070008603E+03    0.54317E-02   -0.12707E+00  3328   0.371E+00    0.277E-01
DAV:   2    -0.234077263684E+03   -0.72551E-02   -0.81454E-02  4240   0.814E-01    0.126E-01
DAV:   3    -0.234077256895E+03    0.67893E-05   -0.30397E-03  5744   0.162E-01    0.958E-02
DAV:   4    -0.234077215571E+03    0.41324E-04   -0.27008E-04  5696   0.505E-02    0.451E-02
DAV:   5    -0.234077195563E+03    0.20008E-04   -0.11402E-04  4960   0.296E-02    0.160E-02
DAV:   6    -0.234077199682E+03   -0.41187E-05   -0.28786E-05  4768   0.126E-02    0.145E-02
DAV:   7    -0.234077200976E+03   -0.12946E-05   -0.47585E-06  3256   0.605E-03    0.733E-03
DAV:   8    -0.234077201879E+03   -0.90238E-06   -0.10263E-06  2056   0.458E-03
  35 F= -.23407720E+03 E0= -.23407720E+03  d E =-.176074E-02
       N       E                     dE             d eps       ncg     rms          rms(c)
DAV:   1    -0.234077200491E+03    0.48520E-06   -0.37447E-04  3456   0.642E-02    0.504E-03
DAV:   2    -0.234077202691E+03   -0.21997E-05   -0.24460E-05  4360   0.141E-02    0.270E-03
DAV:   3    -0.234077202656E+03    0.34706E-07   -0.58900E-07  2320   0.288E-03
  36 F= -.23407720E+03 E0= -.23407720E+03  d E =-.176151E-02
       N       E                     dE             d eps       ncg     rms          rms(c)
DAV:   1    -0.234075328610E+03    0.18741E-02   -0.11233E+00  3328   0.275E+00    0.256E-01
DAV:   2    -0.234079473241E+03   -0.41446E-02   -0.46070E-02  4488   0.666E-01    0.118E-01
DAV:   3    -0.234079451431E+03    0.21810E-04   -0.18810E-03  5752   0.128E-01    0.889E-02
DAV:   4    -0.234079431576E+03    0.19855E-04   -0.19706E-04  5856   0.441E-02    0.396E-02
DAV:   5    -0.234079421179E+03    0.10397E-04   -0.85361E-05  5088   0.240E-02    0.126E-02
DAV:   6    -0.234079424269E+03   -0.30907E-05   -0.17980E-05  4512   0.963E-03    0.110E-02
DAV:   7    -0.234079424895E+03   -0.62535E-06   -0.17471E-06  2024   0.424E-03
  37 F= -.23407942E+03 E0= -.23407942E+03  d E =-.222224E-02
       N       E                     dE             d eps       ncg     rms          rms(c)
DAV:   1    -0.234078265780E+03    0.11585E-02   -0.46763E-01  3328   0.177E+00    0.166E-01
DAV:   2    -0.234080002399E+03   -0.17366E-02   -0.19309E-02  4496   0.431E-01    0.769E-02
DAV:   3    -0.234079992060E+03    0.10340E-04   -0.77976E-04  5688   0.824E-02    0.581E-02
DAV:   4    -0.234079983918E+03    0.81422E-05   -0.84503E-05  5848   0.289E-02    0.259E-02
DAV:   5    -0.234079980308E+03    0.36098E-05   -0.35771E-05  5008   0.156E-02    0.816E-03
DAV:   6    -0.234079981864E+03   -0.15562E-05   -0.72044E-06  3448   0.638E-03    0.670E-03
DAV:   7    -0.234079982369E+03   -0.50549E-06   -0.81752E-07  1984   0.339E-03
  38 F= -.23407998E+03 E0= -.23407998E+03  d E =-.277971E-02
       N       E                     dE             d eps       ncg     rms          rms(c)
DAV:   1    -0.234078251378E+03    0.17305E-02   -0.83317E-01  3368   0.283E+00    0.227E-01
DAV:   2    -0.234082076965E+03   -0.38256E-02   -0.45653E-02  4280   0.599E-01    0.112E-01
DAV:   3    -0.234082009400E+03    0.67565E-04   -0.17494E-03  5600   0.125E-01    0.785E-02
DAV:   4    -0.234081961001E+03    0.48398E-04   -0.21892E-04  5456   0.478E-02    0.318E-02
DAV:   5    -0.234081948280E+03    0.12721E-04   -0.52409E-05  5080   0.193E-02    0.143E-02
DAV:   6    -0.234081944984E+03    0.32963E-05   -0.85465E-06  4384   0.858E-03    0.104E-02
DAV:   7    -0.234081943145E+03    0.18388E-05   -0.16006E-06  2072   0.461E-03    0.417E-03
DAV:   8    -0.234081942372E+03    0.77263E-06   -0.64440E-07  1984   0.455E-03
  39 F= -.23408194E+03 E0= -.23408194E+03  d E =-.196000E-02
       N       E                     dE             d eps       ncg     rms          rms(c)
DAV:   1    -0.234081282102E+03    0.66104E-03   -0.22413E-01  3368   0.147E+00    0.118E-01
DAV:   2    -0.234082311489E+03   -0.10294E-02   -0.12248E-02  4288   0.310E-01    0.581E-02
DAV:   3    -0.234082292184E+03    0.19305E-04   -0.45901E-04  5520   0.646E-02    0.407E-02
DAV:   4    -0.234082278362E+03    0.13822E-04   -0.61964E-05  5472   0.251E-02    0.162E-02
DAV:   5    -0.234082273939E+03    0.44237E-05   -0.13570E-05  4936   0.992E-03    0.746E-03
DAV:   6    -0.234082271990E+03    0.19485E-05   -0.13250E-06  2144   0.464E-03    0.424E-03
DAV:   7    -0.234082270969E+03    0.10210E-05   -0.73307E-07  1984   0.484E-03    0.199E-03
DAV:   8    -0.234082270782E+03    0.18707E-06   -0.56072E-07  1984   0.352E-03
  40 F= -.23408227E+03 E0= -.23408227E+03  d E =-.228841E-02
       N       E                     dE             d eps       ncg     rms          rms(c)
DAV:   1    -0.234080695423E+03    0.15755E-02   -0.87976E-01  3328   0.250E+00    0.192E-01
DAV:   2    -0.234083721075E+03   -0.30257E-02   -0.33552E-02  4360   0.540E-01    0.860E-02
DAV:   3    -0.234083731075E+03   -0.99994E-05   -0.13673E-03  5768   0.105E-01    0.627E-02
DAV:   4    -0.234083721615E+03    0.94602E-05   -0.12457E-04  5864   0.352E-02    0.268E-02
DAV:   5    -0.234083719049E+03    0.25653E-05   -0.43829E-05  4968   0.179E-02    0.847E-03
DAV:   6    -0.234083721161E+03   -0.21114E-05   -0.81496E-06  3520   0.707E-03    0.813E-03
DAV:   7    -0.234083721928E+03   -0.76740E-06   -0.12863E-06  2064   0.404E-03
  41 F= -.23408372E+03 E0= -.23408372E+03  d E =-.145115E-02
       N       E                     dE             d eps       ncg     rms          rms(c)
DAV:   1    -0.234083385913E+03    0.33525E-03   -0.13354E-01  3328   0.972E-01    0.753E-02
DAV:   2    -0.234083847544E+03   -0.46163E-03   -0.51227E-03  4360   0.211E-01    0.339E-02
DAV:   3    -0.234083848190E+03   -0.64654E-06   -0.20326E-04  5704   0.409E-02    0.247E-02
DAV:   4    -0.234083846855E+03    0.13356E-05   -0.19734E-05  5496   0.141E-02    0.104E-02
DAV:   5    -0.234083846967E+03   -0.11226E-06   -0.58938E-06  3504   0.725E-03
  42 F= -.23408385E+03 E0= -.23408385E+03  d E =-.157619E-02
       N       E                     dE             d eps       ncg     rms          rms(c)
DAV:   1    -0.234082884184E+03    0.96267E-03   -0.51415E-01  3328   0.214E+00    0.160E-01
DAV:   2    -0.234084980470E+03   -0.20963E-02   -0.24215E-02  4344   0.451E-01    0.771E-02
DAV:   3    -0.234084965500E+03    0.14970E-04   -0.97936E-04  5736   0.931E-02    0.544E-02
DAV:   4    -0.234084950756E+03    0.14744E-04   -0.10506E-04  5640   0.328E-02    0.234E-02
DAV:   5    -0.234084949393E+03    0.13632E-05   -0.30216E-05  5096   0.152E-02    0.887E-03
DAV:   6    -0.234084951566E+03   -0.21735E-05   -0.45200E-06  3136   0.599E-03    0.735E-03
DAV:   7    -0.234084952977E+03   -0.14111E-05   -0.12353E-06  1992   0.466E-03    0.309E-03
DAV:   8    -0.234084953458E+03   -0.48091E-06   -0.76024E-07  1984   0.461E-03
  43 F= -.23408495E+03 E0= -.23408495E+03  d E =-.110649E-02
       N       E                     dE             d eps       ncg     rms          rms(c)
DAV:   1    -0.234084555673E+03    0.39730E-03   -0.13638E-01  3328   0.110E+00    0.822E-02
DAV:   2    -0.234085114318E+03   -0.55864E-03   -0.64523E-03  4352   0.232E-01    0.398E-02
DAV:   3    -0.234085110057E+03    0.42609E-05   -0.26275E-04  5752   0.481E-02    0.282E-02
DAV:   4    -0.234085106326E+03    0.37313E-05   -0.28289E-05  5536   0.171E-02    0.121E-02
DAV:   5    -0.234085106520E+03   -0.19429E-06   -0.73898E-06  3808   0.798E-03
  44 F= -.23408511E+03 E0= -.23408511E+03  d E =-.125955E-02
       N       E                     dE             d eps       ncg     rms          rms(c)
DAV:   1    -0.234084579079E+03    0.52725E-03   -0.46904E-01  3328   0.180E+00    0.139E-01
DAV:   2    -0.234086162174E+03   -0.15831E-02   -0.17647E-02  4408   0.385E-01    0.647E-02
DAV:   3    -0.234086164442E+03   -0.22681E-05   -0.73507E-04  5736   0.771E-02    0.473E-02
DAV:   4    -0.234086158334E+03    0.61075E-05   -0.78256E-05  5936   0.275E-02    0.205E-02
DAV:   5    -0.234086153544E+03    0.47909E-05   -0.24113E-05  4800   0.135E-02    0.632E-03
DAV:   6    -0.234086153258E+03    0.28589E-06   -0.49703E-06  3184   0.563E-03
  45 F= -.23408615E+03 E0= -.23408615E+03  d E =-.104674E-02
       N       E                     dE             d eps       ncg     rms          rms(c)
DAV:   1    -0.234085685135E+03    0.46841E-03   -0.21674E-01  3328   0.123E+00    0.945E-02
DAV:   2    -0.234086416785E+03   -0.73165E-03   -0.81595E-03  4384   0.262E-01    0.435E-02
DAV:   3    -0.234086418081E+03   -0.12961E-05   -0.34265E-04  5680   0.530E-02    0.318E-02
DAV:   4    -0.234086415015E+03    0.30663E-05   -0.35858E-05  5880   0.187E-02    0.138E-02
DAV:   5    -0.234086412312E+03    0.27031E-05   -0.11005E-05  4288   0.930E-03    0.435E-03
DAV:   6    -0.234086411972E+03    0.33932E-06   -0.23513E-06  2384   0.463E-03
  46 F= -.23408641E+03 E0= -.23408641E+03  d E =-.130545E-02
       N       E                     dE             d eps       ncg     rms          rms(c)
DAV:   1    -0.234085699748E+03    0.71256E-03   -0.50960E-01  3264   0.184E+00    0.138E-01
DAV:   2    -0.234087348142E+03   -0.16484E-02   -0.18427E-02  4448   0.389E-01    0.612E-02
DAV:   3    -0.234087365853E+03   -0.17711E-04   -0.85130E-04  5664   0.798E-02    0.448E-02
DAV:   4    -0.234087363403E+03    0.24504E-05   -0.81698E-05  6048   0.279E-02    0.209E-02
DAV:   5    -0.234087359222E+03    0.41804E-05   -0.25989E-05  4808   0.141E-02    0.700E-03
DAV:   6    -0.234087359230E+03   -0.81018E-08   -0.58667E-06  3152   0.588E-03
  47 F= -.23408736E+03 E0= -.23408736E+03  d E =-.947258E-03
       N       E                     dE             d eps       ncg     rms          rms(c)
DAV:   1    -0.234087094163E+03    0.26506E-03   -0.12381E-01  3264   0.913E-01    0.688E-02
DAV:   2    -0.234087495529E+03   -0.40137E-03   -0.44939E-03  4464   0.193E-01    0.301E-02
DAV:   3    -0.234087500081E+03   -0.45512E-05   -0.20911E-04  5688   0.400E-02    0.219E-02
DAV:   4    -0.234087499463E+03    0.61743E-06   -0.19764E-05  5776   0.139E-02    0.102E-02
DAV:   5    -0.234087498196E+03    0.12673E-05   -0.61866E-06  3448   0.722E-03    0.335E-03
DAV:   6    -0.234087498057E+03    0.13874E-06   -0.14216E-06  2120   0.393E-03
  48 F= -.23408750E+03 E0= -.23408750E+03  d E =-.108608E-02
       N       E                     dE             d eps       ncg     rms          rms(c)
DAV:   1    -0.234087000293E+03    0.49790E-03   -0.52867E-01  3328   0.184E+00    0.146E-01
DAV:   2    -0.234088718665E+03   -0.17184E-02   -0.19150E-02  4360   0.398E-01    0.671E-02
DAV:   3    -0.234088742806E+03   -0.24141E-04   -0.96092E-04  5736   0.824E-02    0.485E-02
DAV:   4    -0.234088739415E+03    0.33911E-05   -0.79272E-05  5984   0.270E-02    0.224E-02
DAV:   5    -0.234088736598E+03    0.28165E-05   -0.29163E-05  4656   0.145E-02    0.692E-03
DAV:   6    -0.234088737796E+03   -0.11978E-05   -0.68998E-06  3392   0.641E-03    0.607E-03
DAV:   7    -0.234088737955E+03   -0.15903E-06   -0.80843E-07  1984   0.328E-03
  49 F= -.23408874E+03 E0= -.23408874E+03  d E =-.123990E-02
       N       E                     dE             d eps       ncg     rms          rms(c)
DAV:   1    -0.234087397840E+03    0.13400E-02   -0.59773E-01  3328   0.195E+00    0.156E-01
DAV:   2    -0.234089353165E+03   -0.19553E-02   -0.21754E-02  4368   0.424E-01    0.722E-02
DAV:   3    -0.234089380392E+03   -0.27226E-04   -0.10921E-03  5768   0.875E-02    0.522E-02
DAV:   4    -0.234089375942E+03    0.44490E-05   -0.89038E-05  5976   0.288E-02    0.243E-02
DAV:   5    -0.234089372406E+03    0.35365E-05   -0.33956E-05  4656   0.157E-02    0.733E-03
DAV:   6    -0.234089373743E+03   -0.13370E-05   -0.82087E-06  3504   0.695E-03    0.671E-03
DAV:   7    -0.234089373885E+03   -0.14219E-06   -0.92482E-07  1992   0.344E-03
  50 F= -.23408937E+03 E0= -.23408937E+03  d E =-.187583E-02
       N       E                     dE             d eps       ncg     rms          rms(c)
DAV:   1    -0.234088386283E+03    0.98746E-03   -0.51527E-01  3328   0.191E+00    0.144E-01
DAV:   2    -0.234090398793E+03   -0.20125E-02   -0.22405E-02  4400   0.402E-01    0.618E-02
DAV:   3    -0.234090431891E+03   -0.33098E-04   -0.11371E-03  5656   0.860E-02    0.453E-02
DAV:   4    -0.234090429873E+03    0.20178E-05   -0.87887E-05  5888   0.270E-02    0.216E-02
DAV:   5    -0.234090425631E+03    0.42420E-05   -0.29361E-05  4832   0.145E-02    0.782E-03
DAV:   6    -0.234090426065E+03   -0.43381E-06   -0.74197E-06  3480   0.639E-03
  51 F= -.23409043E+03 E0= -.23409043E+03  d E =-.105218E-02
       N       E                     dE             d eps       ncg     rms          rms(c)
DAV:   1    -0.234089770714E+03    0.65492E-03   -0.22488E-01  3328   0.126E+00    0.958E-02
DAV:   2    -0.234090647390E+03   -0.87668E-03   -0.97734E-03  4456   0.265E-01    0.406E-02
DAV:   3    -0.234090661602E+03   -0.14212E-04   -0.49319E-04  5592   0.570E-02    0.296E-02
DAV:   4    -0.234090660924E+03    0.67798E-06   -0.39513E-05  5912   0.182E-02    0.140E-02
DAV:   5    -0.234090659060E+03    0.18641E-05   -0.12501E-05  4360   0.965E-03    0.504E-03
DAV:   6    -0.234090659129E+03   -0.69664E-07   -0.29782E-06  2600   0.450E-03
  52 F= -.23409066E+03 E0= -.23409066E+03  d E =-.128524E-02
       N       E                     dE             d eps       ncg     rms          rms(c)
DAV:   1    -0.234090470594E+03    0.18847E-03   -0.30707E-01  3320   0.121E+00    0.119E-01
DAV:   2    -0.234091381420E+03   -0.91083E-03   -0.10095E-02  4512   0.279E-01    0.545E-02
DAV:   3    -0.234091401178E+03   -0.19757E-04   -0.65064E-04  5720   0.595E-02    0.381E-02
DAV:   4    -0.234091399755E+03    0.14228E-05   -0.49917E-05  5680   0.199E-02    0.171E-02
DAV:   5    -0.234091396785E+03    0.29701E-05   -0.15968E-05  4360   0.105E-02    0.625E-03
DAV:   6    -0.234091396706E+03    0.78795E-07   -0.44103E-06  3032   0.530E-03
  53 F= -.23409140E+03 E0= -.23409140E+03  d E =-.737577E-03
       N       E                     dE             d eps       ncg     rms          rms(c)
DAV:   1    -0.234091234494E+03    0.16229E-03   -0.10659E-01  3320   0.714E-01    0.704E-02
DAV:   2    -0.234091550637E+03   -0.31614E-03   -0.35034E-03  4528   0.164E-01    0.319E-02
DAV:   3    -0.234091557371E+03   -0.67342E-05   -0.22506E-04  5680   0.353E-02    0.222E-02
DAV:   4    -0.234091556721E+03    0.65015E-06   -0.16817E-05  5232   0.118E-02    0.990E-03
DAV:   5    -0.234091555457E+03    0.12643E-05   -0.52680E-06  3120   0.652E-03    0.344E-03
DAV:   6    -0.234091555320E+03    0.13619E-06   -0.16613E-06  2192   0.416E-03
  54 F= -.23409156E+03 E0= -.23409156E+03  d E =-.896191E-03
       N       E                     dE             d eps       ncg     rms          rms(c)
DAV:   1    -0.234091819939E+03   -0.26448E-03   -0.10471E-01  3328   0.931E-01    0.663E-02
DAV:   2    -0.234092246934E+03   -0.42699E-03   -0.46741E-03  4288   0.185E-01    0.273E-02
DAV:   3    -0.234092248960E+03   -0.20259E-05   -0.19161E-04  5656   0.378E-02    0.200E-02
DAV:   4    -0.234092247707E+03    0.12522E-05   -0.17322E-05  5528   0.120E-02    0.894E-03
DAV:   5    -0.234092247169E+03    0.53800E-06   -0.51858E-06  3256   0.663E-03
  55 F= -.23409225E+03 E0= -.23409225E+03  d E =-.691849E-03
       N       E                     dE             d eps       ncg     rms          rms(c)
DAV:   1    -0.234091911464E+03    0.33624E-03   -0.14268E-01  3328   0.109E+00    0.781E-02
DAV:   2    -0.234092492485E+03   -0.58102E-03   -0.63765E-03  4280   0.215E-01    0.319E-02
DAV:   3    -0.234092495985E+03   -0.35007E-05   -0.26648E-04  5664   0.445E-02    0.229E-02
DAV:   4    -0.234092494662E+03    0.13235E-05   -0.24284E-05  5888   0.141E-02    0.105E-02
DAV:   5    -0.234092494039E+03    0.62321E-06   -0.73133E-06  3720   0.775E-03
  56 F= -.23409249E+03 E0= -.23409249E+03  d E =-.938718E-03
       N       E                     dE             d eps       ncg     rms          rms(c)
DAV:   1    -0.234092234065E+03    0.26060E-03   -0.40684E-02  3464   0.804E-01    0.592E-02
DAV:   2    -0.234092683169E+03   -0.44910E-03   -0.50120E-03  4160   0.170E-01    0.235E-02
DAV:   3    -0.234092690565E+03   -0.73956E-05   -0.18713E-04  5632   0.356E-02    0.182E-02
DAV:   4    -0.234092688602E+03    0.19625E-05   -0.12409E-05  4848   0.978E-03    0.971E-03
DAV:   5    -0.234092687688E+03    0.91452E-06   -0.48861E-06  3320   0.681E-03
  57 F= -.23409269E+03 E0= -.23409269E+03  d E =-.193649E-03
       N       E                     dE             d eps       ncg     rms          rms(c)
DAV:   1    -0.234092648802E+03    0.39800E-04   -0.45558E-03  3472   0.269E-01    0.207E-02
DAV:   2    -0.234092698420E+03   -0.49618E-04   -0.56580E-04  4152   0.567E-02    0.837E-03
DAV:   3    -0.234092699372E+03   -0.95228E-06   -0.21856E-05  5136   0.122E-02    0.588E-03
DAV:   4    -0.234092699138E+03    0.23423E-06   -0.96024E-07  2248   0.350E-03
  58 F= -.23409270E+03 E0= -.23409270E+03  d E =-.205099E-03
       N       E                     dE             d eps       ncg     rms          rms(c)
DAV:   1    -0.234092690436E+03    0.89363E-05   -0.27636E-02  3328   0.429E-01    0.520E-02
DAV:   2    -0.234092828946E+03   -0.13851E-03   -0.15829E-03  4480   0.120E-01    0.236E-02
DAV:   3    -0.234092826517E+03    0.24295E-05   -0.63655E-05  5656   0.229E-02    0.180E-02
DAV:   4    -0.234092824672E+03    0.18449E-05   -0.66588E-06  4104   0.792E-03    0.875E-03
DAV:   5    -0.234092823188E+03    0.14841E-05   -0.46198E-06  2904   0.579E-03    0.266E-03
DAV:   6    -0.234092823010E+03    0.17763E-06   -0.98576E-07  2024   0.386E-03
  59 F= -.23409282E+03 E0= -.23409282E+03  d E =-.123873E-03
       N       E                     dE             d eps       ncg     rms          rms(c)
DAV:   1    -0.234091848409E+03    0.97478E-03   -0.23431E-01  3328   0.125E+00    0.152E-01
DAV:   2    -0.234093028071E+03   -0.11797E-02   -0.13467E-02  4464   0.351E-01    0.711E-02
DAV:   3    -0.234093003830E+03    0.24241E-04   -0.52812E-04  5696   0.666E-02    0.545E-02
DAV:   4    -0.234092988588E+03    0.15241E-04   -0.64837E-05  5856   0.230E-02    0.259E-02
DAV:   5    -0.234092979317E+03    0.92714E-05   -0.30610E-05  4872   0.141E-02    0.858E-03
DAV:   6    -0.234092978877E+03    0.43997E-06   -0.60841E-06  3136   0.561E-03
  60 F= -.23409298E+03 E0= -.23409298E+03  d E =-.279739E-03
       N       E                     dE             d eps       ncg     rms          rms(c)
DAV:   1    -0.234092979502E+03   -0.18553E-06   -0.23401E-02  3328   0.378E-01    0.423E-02
DAV:   2    -0.234093088562E+03   -0.10906E-03   -0.12168E-03  4592   0.971E-02    0.157E-02
DAV:   3    -0.234093088163E+03    0.39936E-06   -0.51223E-05  5432   0.192E-02    0.125E-02
DAV:   4    -0.234093087666E+03    0.49711E-06   -0.36064E-06  3176   0.603E-03
  61 F= -.23409309E+03 E0= -.23409309E+03  d E =-.108789E-03
       N       E                     dE             d eps       ncg     rms          rms(c)
DAV:   1    -0.234092398220E+03    0.68994E-03   -0.21016E-01  3328   0.113E+00    0.120E-01
DAV:   2    -0.234093370921E+03   -0.97270E-03   -0.10808E-02  4568   0.288E-01    0.496E-02
DAV:   3    -0.234093367387E+03    0.35342E-05   -0.45176E-04  5576   0.569E-02    0.399E-02
DAV:   4    -0.234093364092E+03    0.32954E-05   -0.41408E-05  5440   0.174E-02    0.200E-02
DAV:   5    -0.234093359162E+03    0.49294E-05   -0.23241E-05  4088   0.118E-02    0.928E-03
DAV:   6    -0.234093359646E+03   -0.48395E-06   -0.67145E-06  3320   0.598E-03
  62 F= -.23409336E+03 E0= -.23409336E+03  d E =-.380769E-03
       N       E                     dE             d eps       ncg     rms          rms(c)
DAV:   1    -0.234089761023E+03    0.35981E-02   -0.84250E-01  3328   0.227E+00    0.244E-01
DAV:   2    -0.234093692547E+03   -0.39315E-02   -0.43693E-02  4552   0.578E-01    0.101E-01
DAV:   3    -0.234093678980E+03    0.13567E-04   -0.18425E-03  5600   0.115E-01    0.814E-02
DAV:   4    -0.234093665825E+03    0.13155E-04   -0.17232E-04  5856   0.348E-02    0.410E-02
DAV:   5    -0.234093645972E+03    0.19854E-04   -0.96476E-05  4520   0.233E-02    0.188E-02
DAV:   6    -0.234093648349E+03   -0.23774E-05   -0.27326E-05  3888   0.108E-02    0.811E-03
DAV:   7    -0.234093648189E+03    0.15995E-06   -0.27553E-06  2472   0.501E-03
  63 F= -.23409365E+03 E0= -.23409365E+03  d E =-.669312E-03
       N       E                     dE             d eps       ncg     rms          rms(c)
DAV:   1    -0.234093685950E+03   -0.37600E-04   -0.89298E-03  3304   0.190E-01    0.230E-02
DAV:   2    -0.234093719198E+03   -0.33249E-04   -0.36349E-04  4840   0.516E-02    0.103E-02
DAV:   3    -0.234093719170E+03    0.28434E-07   -0.16241E-05  4768   0.102E-02    0.801E-03
DAV:   4    -0.234093718990E+03    0.18014E-06   -0.89752E-07  2112   0.393E-03
  64 F= -.23409372E+03 E0= -.23409372E+03  d E =-.708002E-04
       N       E                     dE             d eps       ncg     rms          rms(c)
DAV:   1    -0.234093617457E+03    0.10171E-03   -0.80141E-02  3312   0.569E-01    0.714E-02
DAV:   2    -0.234093892603E+03   -0.27515E-03   -0.30415E-03  4840   0.141E-01    0.299E-02
DAV:   3    -0.234093893080E+03   -0.47659E-06   -0.14090E-04  5656   0.291E-02    0.227E-02
DAV:   4    -0.234093892376E+03    0.70390E-06   -0.13024E-05  4744   0.955E-03    0.114E-02
DAV:   5    -0.234093891081E+03    0.12949E-05   -0.54343E-06  3216   0.603E-03    0.466E-03
DAV:   6    -0.234093891061E+03    0.20049E-07   -0.15860E-06  2208   0.361E-03
  65 F= -.23409389E+03 E0= -.23409389E+03  d E =-.242871E-03
       N       E                     dE             d eps       ncg     rms          rms(c)
DAV:   1    -0.234092875196E+03    0.10159E-02   -0.32108E-01  3312   0.114E+00    0.145E-01
DAV:   2    -0.234093988229E+03   -0.11130E-02   -0.12312E-02  4784   0.286E-01    0.614E-02
DAV:   3    -0.234093988898E+03   -0.66886E-06   -0.56584E-04  5712   0.585E-02    0.468E-02
DAV:   4    -0.234093986042E+03    0.28558E-05   -0.54696E-05  5328   0.191E-02    0.237E-02
DAV:   5    -0.234093981349E+03    0.46929E-05   -0.24058E-05  4440   0.119E-02    0.980E-03
DAV:   6    -0.234093981610E+03   -0.26101E-06   -0.60933E-06  3280   0.546E-03
  66 F= -.23409398E+03 E0= -.23409398E+03  d E =-.333421E-03
       N       E                     dE             d eps       ncg     rms          rms(c)
DAV:   1    -0.234093918237E+03    0.63112E-04   -0.22100E-02  3312   0.299E-01    0.372E-02
DAV:   2    -0.234093993756E+03   -0.75519E-04   -0.83959E-04  4808   0.760E-02    0.161E-02
DAV:   3    -0.234093993619E+03    0.13773E-06   -0.37355E-05  5168   0.153E-02    0.123E-02
DAV:   4    -0.234093993289E+03    0.32955E-06   -0.22741E-06  2624   0.508E-03
  67 F= -.23409399E+03 E0= -.23409399E+03  d E =-.345100E-03
       N       E                     dE             d eps       ncg     rms          rms(c)
DAV:   1    -0.234094094340E+03   -0.10072E-03   -0.25244E-03  3696   0.229E-01    0.169E-02
DAV:   2    -0.234094132835E+03   -0.38495E-04   -0.42406E-04  3968   0.475E-02    0.700E-03
DAV:   3    -0.234094133603E+03   -0.76837E-06   -0.16029E-05  4144   0.110E-02    0.545E-03
DAV:   4    -0.234094133263E+03    0.34082E-06   -0.11147E-06  2112   0.367E-03
  68 F= -.23409413E+03 E0= -.23409413E+03  d E =-.139973E-03
       N       E                     dE             d eps       ncg     rms          rms(c)
DAV:   1    -0.234094079997E+03    0.53607E-04   -0.22577E-02  3608   0.685E-01    0.502E-02
DAV:   2    -0.234094424255E+03   -0.34426E-03   -0.38256E-03  3992   0.142E-01    0.204E-02
DAV:   3    -0.234094430788E+03   -0.65322E-05   -0.14830E-04  5232   0.327E-02    0.161E-02
DAV:   4    -0.234094428655E+03    0.21321E-05   -0.10381E-05  4552   0.820E-03    0.900E-03
DAV:   5    -0.234094427511E+03    0.11443E-05   -0.47369E-06  2920   0.664E-03    0.351E-03
DAV:   6    -0.234094427518E+03   -0.73451E-08   -0.13910E-06  2048   0.417E-03
  69 F= -.23409443E+03 E0= -.23409443E+03  d E =-.434229E-03
       N       E                     dE             d eps       ncg     rms          rms(c)
DAV:   1    -0.234093048821E+03    0.13787E-02   -0.90868E-02  3608   0.137E+00    0.101E-01
DAV:   2    -0.234094437857E+03   -0.13890E-02   -0.15395E-02  4064   0.287E-01    0.418E-02
DAV:   3    -0.234094458058E+03   -0.20202E-04   -0.56532E-04  5152   0.635E-02    0.322E-02
DAV:   4    -0.234094450120E+03    0.79385E-05   -0.43721E-05  5576   0.165E-02    0.176E-02
DAV:   5    -0.234094445937E+03    0.41830E-05   -0.15285E-05  4032   0.119E-02    0.674E-03
DAV:   6    -0.234094446088E+03   -0.15134E-06   -0.61031E-06  3384   0.609E-03
  70 F= -.23409445E+03 E0= -.23409445E+03  d E =-.452799E-03
       N       E                     dE             d eps       ncg     rms          rms(c)
DAV:   1    -0.234094220100E+03    0.22584E-03   -0.20330E-02  3608   0.649E-01    0.455E-02
DAV:   2    -0.234094530239E+03   -0.31014E-03   -0.34139E-03  4112   0.136E-01    0.204E-02
DAV:   3    -0.234094533721E+03   -0.34827E-05   -0.12010E-04  5104   0.289E-02    0.159E-02
DAV:   4    -0.234094531796E+03    0.19250E-05   -0.81487E-06  4032   0.740E-03    0.878E-03
DAV:   5    -0.234094531059E+03    0.73737E-06   -0.44236E-06  2824   0.614E-03
  71 F= -.23409453E+03 E0= -.23409453E+03  d E =-.537770E-03
       N       E                     dE             d eps       ncg     rms          rms(c)
DAV:   1    -0.234094601518E+03   -0.69722E-04   -0.76776E-03  3328   0.258E-01    0.295E-02
DAV:   2    -0.234094651739E+03   -0.50220E-04   -0.54839E-04  4288   0.732E-02    0.147E-02
DAV:   3    -0.234094650713E+03    0.10255E-05   -0.17961E-05  5376   0.133E-02    0.111E-02
DAV:   4    -0.234094649854E+03    0.85943E-06   -0.13933E-06  2048   0.426E-03
  72 F= -.23409465E+03 E0= -.23409465E+03  d E =-.118795E-03
       N       E                     dE             d eps       ncg     rms          rms(c)
DAV:   1    -0.234094435273E+03    0.21544E-03   -0.68515E-02  3328   0.771E-01    0.894E-02
DAV:   2    -0.234094878157E+03   -0.44288E-03   -0.49162E-03  4264   0.217E-01    0.385E-02
DAV:   3    -0.234094870456E+03    0.77004E-05   -0.17496E-04  5688   0.409E-02    0.298E-02
DAV:   4    -0.234094865544E+03    0.49122E-05   -0.19928E-05  5336   0.124E-02    0.140E-02
DAV:   5    -0.234094862639E+03    0.29048E-05   -0.11898E-05  3672   0.886E-03    0.520E-03
DAV:   6    -0.234094862787E+03   -0.14770E-06   -0.26847E-06  2312   0.456E-03
  73 F= -.23409486E+03 E0= -.23409486E+03  d E =-.331728E-03
       N       E                     dE             d eps       ncg     rms          rms(c)
DAV:   1    -0.234092969565E+03    0.18931E-02   -0.27596E-01  3328   0.154E+00    0.181E-01
DAV:   2    -0.234094737451E+03   -0.17679E-02   -0.19549E-02  4296   0.433E-01    0.787E-02
DAV:   3    -0.234094705097E+03    0.32354E-04   -0.68930E-04  5696   0.802E-02    0.604E-02
DAV:   4    -0.234094684332E+03    0.20765E-04   -0.81397E-05  5744   0.250E-02    0.281E-02
DAV:   5    -0.234094674178E+03    0.10153E-04   -0.44903E-05  4456   0.166E-02    0.102E-02
DAV:   6    -0.234094675013E+03   -0.83419E-06   -0.11049E-05  3504   0.764E-03    0.665E-03
DAV:   7    -0.234094674746E+03    0.26647E-06   -0.10894E-06  2104   0.369E-03
  74 F= -.23409467E+03 E0= -.23409467E+03  d E =-.143687E-03
       N       E                     dE             d eps       ncg     rms          rms(c)
DAV:   1    -0.234093995929E+03    0.67908E-03   -0.14519E-01  3328   0.112E+00    0.131E-01
DAV:   2    -0.234094925267E+03   -0.92934E-03   -0.10276E-02  4304   0.315E-01    0.574E-02
DAV:   3    -0.234094907263E+03    0.18004E-04   -0.35785E-04  5672   0.586E-02    0.441E-02
DAV:   4    -0.234094896098E+03    0.11165E-04   -0.41941E-05  5624   0.178E-02    0.207E-02
DAV:   5    -0.234094891424E+03    0.46740E-05   -0.24046E-05  4216   0.120E-02    0.748E-03
DAV:   6    -0.234094892090E+03   -0.66547E-06   -0.53611E-06  3032   0.551E-03
  75 F= -.23409489E+03 E0= -.23409489E+03  d E =-.361031E-03
       N       E                     dE             d eps       ncg     rms          rms(c)
DAV:   1    -0.234094891089E+03    0.33559E-06   -0.11248E-02  3328   0.322E-01    0.409E-02
DAV:   2    -0.234094979419E+03   -0.88331E-04   -0.10504E-03  4272   0.961E-02    0.215E-02
DAV:   3    -0.234094976778E+03    0.26411E-05   -0.33976E-05  5608   0.184E-02    0.163E-02
DAV:   4    -0.234094975159E+03    0.16193E-05   -0.37366E-06  2968   0.647E-03    0.764E-03
DAV:   5    -0.234094975344E+03   -0.18542E-06   -0.50100E-06  3096   0.553E-03
  76 F= -.23409498E+03 E0= -.23409498E+03  d E =-.832547E-04
       N       E                     dE             d eps       ncg     rms          rms(c)
DAV:   1    -0.234094328387E+03    0.64677E-03   -0.10108E-01  3328   0.965E-01    0.126E-01
DAV:   2    -0.234095125938E+03   -0.79755E-03   -0.94881E-03  4280   0.286E-01    0.621E-02
DAV:   3    -0.234095103792E+03    0.22146E-04   -0.31228E-04  5696   0.552E-02    0.468E-02
DAV:   4    -0.234095089871E+03    0.13922E-04   -0.46449E-05  5464   0.192E-02    0.211E-02
DAV:   5    -0.234095088273E+03    0.15974E-05   -0.16828E-05  4736   0.102E-02    0.744E-03
DAV:   6    -0.234095089615E+03   -0.13422E-05   -0.18840E-06  2128   0.410E-03    0.355E-03
DAV:   7    -0.234095090413E+03   -0.79803E-06   -0.61417E-07  1984   0.436E-03
  77 F= -.23409509E+03 E0= -.23409509E+03  d E =-.198324E-03
       N       E                     dE             d eps       ncg     rms          rms(c)
DAV:   1    -0.234095101757E+03   -0.12141E-04   -0.11396E-02  3328   0.289E-01    0.351E-02
DAV:   2    -0.234095166596E+03   -0.64840E-04   -0.72794E-04  4360   0.797E-02    0.139E-02
DAV:   3    -0.234095165994E+03    0.60176E-06   -0.26799E-05  5488   0.150E-02    0.106E-02
DAV:   4    -0.234095165540E+03    0.45403E-06   -0.15747E-06  2296   0.460E-03
  78 F= -.23409517E+03 E0= -.23409517E+03  d E =-.751269E-04
       N       E                     dE             d eps       ncg     rms          rms(c)
DAV:   1    -0.234094739102E+03    0.42689E-03   -0.10223E-01  3328   0.866E-01    0.101E-01
DAV:   2    -0.234095324731E+03   -0.58563E-03   -0.65320E-03  4352   0.239E-01    0.434E-02
DAV:   3    -0.234095319232E+03    0.54989E-05   -0.23666E-04  5744   0.452E-02    0.335E-02
DAV:   4    -0.234095315295E+03    0.39372E-05   -0.23513E-05  5400   0.130E-02    0.168E-02
DAV:   5    -0.234095312885E+03    0.24094E-05   -0.12461E-05  3968   0.903E-03    0.676E-03
DAV:   6    -0.234095313440E+03   -0.55472E-06   -0.33105E-06  2560   0.473E-03
  79 F= -.23409531E+03 E0= -.23409531E+03  d E =-.223026E-03
       N       E                     dE             d eps       ncg     rms          rms(c)
DAV:   1    -0.234092918780E+03    0.23941E-02   -0.41068E-01  3328   0.173E+00    0.205E-01
DAV:   2    -0.234095279557E+03   -0.23608E-02   -0.26253E-02  4304   0.479E-01    0.899E-02
DAV:   3    -0.234095256736E+03    0.22821E-04   -0.95442E-04  5720   0.904E-02    0.688E-02
DAV:   4    -0.234095238846E+03    0.17890E-04   -0.96840E-05  5576   0.263E-02    0.346E-02
DAV:   5    -0.234095228068E+03    0.10778E-04   -0.50220E-05  4928   0.177E-02    0.138E-02
DAV:   6    -0.234095229710E+03   -0.16428E-05   -0.12722E-05  3576   0.755E-03    0.604E-03
DAV:   7    -0.234095230052E+03   -0.34180E-06   -0.99040E-07  2008   0.380E-03
  80 F= -.23409523E+03 E0= -.23409523E+03  d E =-.139639E-03
       N       E                     dE             d eps       ncg     rms          rms(c)
DAV:   1    -0.234094327532E+03    0.90218E-03   -0.18067E-01  3328   0.115E+00    0.135E-01
DAV:   2    -0.234095370839E+03   -0.10433E-02   -0.11558E-02  4304   0.317E-01    0.607E-02
DAV:   3    -0.234095361045E+03    0.97937E-05   -0.41771E-04  5760   0.595E-02    0.466E-02
DAV:   4    -0.234095352398E+03    0.86470E-05   -0.40760E-05  5432   0.171E-02    0.238E-02
DAV:   5    -0.234095345881E+03    0.65176E-05   -0.23133E-05  4336   0.119E-02    0.931E-03
DAV:   6    -0.234095346018E+03   -0.13742E-06   -0.59765E-06  3240   0.563E-03
  81 F= -.23409535E+03 E0= -.23409535E+03  d E =-.255605E-03
       N       E                     dE             d eps       ncg     rms          rms(c)
DAV:   1    -0.234095342681E+03    0.31996E-05   -0.21031E-02  3328   0.328E-01    0.367E-02
DAV:   2    -0.234095425638E+03   -0.82957E-04   -0.90361E-04  4408   0.869E-02    0.184E-02
DAV:   3    -0.234095425387E+03    0.25065E-06   -0.33674E-05  5400   0.158E-02    0.136E-02
DAV:   4    -0.234095424521E+03    0.86649E-06   -0.22503E-06  2520   0.516E-03
  82 F= -.23409542E+03 E0= -.23409542E+03  d E =-.785028E-04
       N       E                     dE             d eps       ncg     rms          rms(c)
DAV:   1    -0.234094850591E+03    0.57480E-03   -0.18886E-01  3328   0.983E-01    0.112E-01
DAV:   2    -0.234095592449E+03   -0.74186E-03   -0.81570E-03  4424   0.258E-01    0.534E-02
DAV:   3    -0.234095591854E+03    0.59526E-06   -0.31812E-04  5728   0.480E-02    0.393E-02
DAV:   4    -0.234095586967E+03    0.48872E-05   -0.31134E-05  5312   0.152E-02    0.198E-02
DAV:   5    -0.234095583418E+03    0.35493E-05   -0.15442E-05  4152   0.977E-03    0.669E-03
DAV:   6    -0.234095583418E+03   -0.14552E-10   -0.30674E-06  2648   0.472E-03
  83 F= -.23409558E+03 E0= -.23409558E+03  d E =-.237400E-03
       N       E                     dE             d eps       ncg     rms          rms(c)
DAV:   1    -0.234092541413E+03    0.30420E-02   -0.75675E-01  3328   0.197E+00    0.227E-01
DAV:   2    -0.234095511460E+03   -0.29700E-02   -0.32633E-02  4408   0.515E-01    0.108E-01
DAV:   3    -0.234095511530E+03   -0.70479E-07   -0.13075E-03  5752   0.949E-02    0.789E-02
DAV:   4    -0.234095492263E+03    0.19267E-04   -0.12569E-04  5704   0.307E-02    0.398E-02
DAV:   5    -0.234095479849E+03    0.12414E-04   -0.63597E-05  4840   0.192E-02    0.133E-02
DAV:   6    -0.234095480637E+03   -0.78703E-06   -0.12580E-05  3680   0.750E-03    0.691E-03
DAV:   7    -0.234095480410E+03    0.22675E-06   -0.97072E-07  2104   0.370E-03
  84 F= -.23409548E+03 E0= -.23409548E+03  d E =-.134392E-03
       N       E                     dE             d eps       ncg     rms          rms(c)
DAV:   1    -0.234094228098E+03    0.12525E-02   -0.35754E-01  3328   0.135E+00    0.154E-01
DAV:   2    -0.234095626091E+03   -0.13980E-02   -0.15380E-02  4400   0.353E-01    0.743E-02
DAV:   3    -0.234095625777E+03    0.31356E-06   -0.61492E-04  5752   0.656E-02    0.546E-02
DAV:   4    -0.234095616601E+03    0.91760E-05   -0.56034E-05  5432   0.207E-02    0.278E-02
DAV:   5    -0.234095612323E+03    0.42779E-05   -0.31521E-05  4632   0.136E-02    0.907E-03
DAV:   6    -0.234095613479E+03   -0.11558E-05   -0.57589E-06  3224   0.539E-03    0.460E-03
DAV:   7    -0.234095613796E+03   -0.31737E-06   -0.48388E-07  1992   0.287E-03
  85 F= -.23409561E+03 E0= -.23409561E+03  d E =-.267778E-03
       N       E                     dE             d eps       ncg     rms          rms(c)
DAV:   1    -0.234095629204E+03   -0.15725E-04   -0.26367E-02  3328   0.436E-01    0.356E-02
DAV:   2    -0.234095738409E+03   -0.10921E-03   -0.12682E-03  4216   0.933E-02    0.162E-02
DAV:   3    -0.234095737694E+03    0.71491E-06   -0.46322E-05  5552   0.186E-02    0.121E-02
DAV:   4    -0.234095737030E+03    0.66404E-06   -0.34505E-06  3048   0.617E-03
  86 F= -.23409574E+03 E0= -.23409574E+03  d E =-.123234E-03
       N       E                     dE             d eps       ncg     rms          rms(c)
DAV:   1    -0.234094892611E+03    0.84508E-03   -0.23703E-01  3328   0.131E+00    0.106E-01
DAV:   2    -0.234095883561E+03   -0.99095E-03   -0.11446E-02  4192   0.279E-01    0.482E-02
DAV:   3    -0.234095880400E+03    0.31618E-05   -0.43113E-04  5656   0.565E-02    0.356E-02
DAV:   4    -0.234095874963E+03    0.54364E-05   -0.43464E-05  5672   0.185E-02    0.165E-02
DAV:   5    -0.234095874856E+03    0.10744E-06   -0.12883E-05  4560   0.978E-03    0.649E-03
DAV:   6    -0.234095876335E+03   -0.14796E-05   -0.20844E-06  2320   0.452E-03    0.397E-03
DAV:   7    -0.234095877241E+03   -0.90607E-06   -0.66797E-07  2048   0.454E-03
  87 F= -.23409588E+03 E0= -.23409588E+03  d E =-.263445E-03
       N       E                     dE             d eps       ncg     rms          rms(c)
DAV:   1    -0.234095806173E+03    0.70163E-04   -0.36028E-02  3328   0.500E-01    0.469E-02
DAV:   2    -0.234095978509E+03   -0.17234E-03   -0.19074E-03  4296   0.118E-01    0.191E-02
DAV:   3    -0.234095978210E+03    0.29936E-06   -0.71221E-05  5632   0.223E-02    0.148E-02
DAV:   4    -0.234095977400E+03    0.81037E-06   -0.55033E-06  3992   0.685E-03
  88 F= -.23409598E+03 E0= -.23409598E+03  d E =-.100158E-03
       N       E                     dE             d eps       ncg     rms          rms(c)
DAV:   1    -0.234095803634E+03    0.17458E-03   -0.45472E-02  3328   0.561E-01    0.505E-02
DAV:   2    -0.234096018150E+03   -0.21452E-03   -0.23791E-03  4264   0.130E-01    0.217E-02
DAV:   3    -0.234096018242E+03   -0.91881E-07   -0.92095E-05  5640   0.254E-02    0.167E-02
DAV:   4    -0.234096017341E+03    0.90071E-06   -0.74620E-06  4440   0.773E-03
  89 F= -.23409602E+03 E0= -.23409602E+03  d E =-.140099E-03
       N       E                     dE             d eps       ncg     rms          rms(c)
DAV:   1    -0.234096023488E+03   -0.52467E-05   -0.56216E-03  3336   0.284E-01    0.298E-02
DAV:   2    -0.234096079828E+03   -0.56339E-04   -0.68241E-04  4192   0.712E-02    0.143E-02
DAV:   3    -0.234096078680E+03    0.11477E-05   -0.24533E-05  5128   0.147E-02    0.104E-02
DAV:   4    -0.234096076898E+03    0.17815E-05   -0.32772E-06  2688   0.622E-03    0.444E-03
DAV:   5    -0.234096076406E+03    0.49245E-06   -0.19059E-06  2040   0.545E-03
  90 F= -.23409608E+03 E0= -.23409608E+03  d E =-.590650E-04
       N       E                     dE             d eps       ncg     rms          rms(c)
DAV:   1    -0.234095660930E+03    0.41597E-03   -0.47153E-02  3328   0.820E-01    0.880E-02
DAV:   2    -0.234096126603E+03   -0.46567E-03   -0.57719E-03  4136   0.208E-01    0.414E-02
DAV:   3    -0.234096116138E+03    0.10465E-04   -0.21023E-04  5568   0.432E-02    0.307E-02
DAV:   4    -0.234096104509E+03    0.11630E-04   -0.35351E-05  5216   0.173E-02    0.125E-02
DAV:   5    -0.234096101602E+03    0.29069E-05   -0.68182E-06  3664   0.693E-03    0.546E-03
DAV:   6    -0.234096100236E+03    0.13656E-05   -0.93908E-07  1992   0.430E-03    0.358E-03
DAV:   7    -0.234096099596E+03    0.64023E-06   -0.54142E-07  1960   0.459E-03
  91 F= -.23409610E+03 E0= -.23409610E+03  d E =-.822551E-04
       N       E                     dE             d eps       ncg     rms          rms(c)
DAV:   1    -0.234096054486E+03    0.45750E-04   -0.64361E-03  3344   0.303E-01    0.324E-02
DAV:   2    -0.234096115748E+03   -0.61262E-04   -0.78707E-04  4144   0.769E-02    0.160E-02
DAV:   3    -0.234096113816E+03    0.19327E-05   -0.27712E-05  5256   0.159E-02    0.117E-02
DAV:   4    -0.234096112576E+03    0.12395E-05   -0.37272E-06  2848   0.638E-03    0.496E-03
DAV:   5    -0.234096112971E+03   -0.39482E-06   -0.23031E-06  2136   0.526E-03
  92 F= -.23409611E+03 E0= -.23409611E+03  d E =-.956301E-04
       N       E                     dE             d eps       ncg     rms          rms(c)
DAV:   1    -0.234096079809E+03    0.32767E-04   -0.95948E-03  3328   0.303E-01    0.402E-02
DAV:   2    -0.234096161393E+03   -0.81585E-04   -0.90267E-04  4296   0.933E-02    0.192E-02
DAV:   3    -0.234096159588E+03    0.18055E-05   -0.28210E-05  5496   0.169E-02    0.142E-02
DAV:   4    -0.234096158088E+03    0.14994E-05   -0.25352E-06  2624   0.516E-03    0.765E-03
DAV:   5    -0.234096157620E+03    0.46885E-06   -0.61139E-06  3264   0.577E-03
  93 F= -.23409616E+03 E0= -.23409616E+03  d E =-.446486E-04
