       N       E                     dE             d eps       ncg     rms          rms(c)
DAV:   1     0.479343295195E+04    0.47934E+04   -0.15053E+05  3216   0.188E+03
DAV:   2     0.589265316261E+03   -0.42042E+04   -0.40878E+04  3536   0.510E+02
DAV:   3    -0.135386302550E+03   -0.72465E+03   -0.68120E+03  4400   0.205E+02
DAV:   4    -0.232980452083E+03   -0.97594E+02   -0.97211E+02  5360   0.834E+01
DAV:   5    -0.245316344140E+03   -0.12336E+02   -0.12307E+02  6296   0.317E+01    0.263E+01
DAV:   6    -0.233949742697E+03    0.11367E+02   -0.55535E+01  5640   0.271E+01    0.132E+01
DAV:   7    -0.233688325927E+03    0.26142E+00   -0.11119E+01  5920   0.102E+01    0.652E+00
DAV:   8    -0.233744769527E+03   -0.56444E-01   -0.23400E+00  5520   0.537E+00    0.258E+00
DAV:   9    -0.233729719298E+03    0.15050E-01   -0.43778E-01  5320   0.305E+00    0.157E+00
DAV:  10    -0.233717690129E+03    0.12029E-01   -0.11271E-01  5488   0.173E+00    0.716E-01
DAV:  11    -0.233715763764E+03    0.19264E-02   -0.25570E-02  5456   0.654E-01    0.243E-01
DAV:  12    -0.233716522263E+03   -0.75850E-03   -0.75824E-03  6096   0.290E-01    0.169E-01
DAV:  13    -0.233716558569E+03   -0.36307E-04   -0.21414E-03  4824   0.224E-01    0.766E-02
DAV:  14    -0.233716638125E+03   -0.79556E-04   -0.83435E-04  6120   0.827E-02    0.394E-02
DAV:  15    -0.233716654913E+03   -0.16788E-04   -0.12908E-04  5736   0.352E-02    0.157E-02
DAV:  16    -0.233716659065E+03   -0.41516E-05   -0.41466E-05  3936   0.202E-02    0.967E-03
DAV:  17    -0.233716660171E+03   -0.11067E-05   -0.26935E-05  5120   0.114E-02    0.832E-03
DAV:  18    -0.233716660506E+03   -0.33505E-06   -0.35192E-06  2840   0.558E-03
   1 F= -.23371666E+03 E0= -.23371666E+03  d E =-.233717E+03
       N       E                     dE             d eps       ncg     rms          rms(c)
DAV:   1    -0.233582447113E+03    0.13421E+00   -0.14263E+01  3656   0.184E+01    0.168E+00
DAV:   2    -0.233815189476E+03   -0.23274E+00   -0.28595E+00  4152   0.433E+00    0.907E-01
DAV:   3    -0.233812810040E+03    0.23794E-02   -0.11351E-01  5240   0.976E-01    0.643E-01
DAV:   4    -0.233808302527E+03    0.45075E-02   -0.13513E-02  5096   0.321E-01    0.289E-01
DAV:   5    -0.233807474181E+03    0.82835E-03   -0.40649E-03  4896   0.163E-01    0.131E-01
DAV:   6    -0.233807444557E+03    0.29624E-04   -0.69134E-04  5896   0.740E-02    0.115E-01
DAV:   7    -0.233807430403E+03    0.14154E-04   -0.13113E-04  5120   0.294E-02    0.551E-02
DAV:   8    -0.233807410972E+03    0.19431E-04   -0.41573E-05  4768   0.185E-02    0.225E-02
DAV:   9    -0.233807409367E+03    0.16044E-05   -0.15976E-05  5120   0.995E-03    0.679E-03
DAV:  10    -0.233807409898E+03   -0.53056E-06   -0.16588E-06  2296   0.442E-03
   2 F= -.23380741E+03 E0= -.23380741E+03  d E =-.907494E-01
       N       E                     dE             d eps       ncg     rms          rms(c)
DAV:   1    -0.233745308563E+03    0.62101E-01   -0.48003E+00  3664   0.107E+01    0.103E+00
DAV:   2    -0.233822097490E+03   -0.76789E-01   -0.94190E-01  3928   0.241E+00    0.486E-01
DAV:   3    -0.233821959479E+03    0.13801E-03   -0.41988E-02  5240   0.598E-01    0.352E-01
DAV:   4    -0.233820577115E+03    0.13824E-02   -0.45680E-03  5160   0.190E-01    0.149E-01
DAV:   5    -0.233820370969E+03    0.20615E-03   -0.11815E-03  4968   0.877E-02    0.730E-02
DAV:   6    -0.233820357071E+03    0.13897E-04   -0.19790E-04  5872   0.418E-02    0.611E-02
DAV:   7    -0.233820347660E+03    0.94112E-05   -0.38043E-05  4952   0.169E-02    0.275E-02
DAV:   8    -0.233820338854E+03    0.88061E-05   -0.11644E-05  3960   0.105E-02    0.696E-03
DAV:   9    -0.233820338511E+03    0.34268E-06   -0.60099E-06  3888   0.658E-03
   3 F= -.23382034E+03 E0= -.23382034E+03  d E =-.103678E+00
       N       E                     dE             d eps       ncg     rms          rms(c)
DAV:   1    -0.233786095069E+03    0.34244E-01   -0.14947E+01  3336   0.116E+01    0.149E+00
DAV:   2    -0.233886459363E+03   -0.10036E+00   -0.12160E+00  4352   0.352E+00    0.780E-01
DAV:   3    -0.233883084004E+03    0.33754E-02   -0.45698E-02  5832   0.665E-01    0.580E-01
DAV:   4    -0.233880607599E+03    0.24764E-02   -0.72286E-03  5152   0.262E-01    0.234E-01
DAV:   5    -0.233880160343E+03    0.44726E-03   -0.23691E-03  5136   0.125E-01    0.691E-02
DAV:   6    -0.233880188832E+03   -0.28490E-04   -0.37377E-04  5848   0.450E-02    0.619E-02
DAV:   7    -0.233880194121E+03   -0.52893E-05   -0.45400E-05  5864   0.185E-02    0.304E-02
DAV:   8    -0.233880197157E+03   -0.30356E-05   -0.12037E-05  4656   0.105E-02    0.119E-02
DAV:   9    -0.233880197810E+03   -0.65338E-06   -0.33736E-06  2760   0.553E-03
   4 F= -.23388020E+03 E0= -.23388020E+03  d E =-.598593E-01
       N       E                     dE             d eps       ncg     rms          rms(c)
DAV:   1    -0.233809569241E+03    0.70628E-01   -0.15639E+01  3336   0.119E+01    0.153E+00
DAV:   2    -0.233914073929E+03   -0.10450E+00   -0.12674E+00  4256   0.360E+00    0.805E-01
DAV:   3    -0.233910823053E+03    0.32509E-02   -0.50435E-02  5816   0.709E-01    0.597E-01
DAV:   4    -0.233908222356E+03    0.26007E-02   -0.76829E-03  5248   0.272E-01    0.239E-01
DAV:   5    -0.233907761498E+03    0.46086E-03   -0.24843E-03  5072   0.129E-01    0.712E-02
DAV:   6    -0.233907790294E+03   -0.28796E-04   -0.39456E-04  5848   0.467E-02    0.636E-02
DAV:   7    -0.233907795520E+03   -0.52258E-05   -0.46455E-05  5904   0.192E-02    0.313E-02
DAV:   8    -0.233907798633E+03   -0.31134E-05   -0.12994E-05  4632   0.108E-02    0.119E-02
DAV:   9    -0.233907799357E+03   -0.72353E-06   -0.40842E-06  3160   0.576E-03
   5 F= -.23390780E+03 E0= -.23390780E+03  d E =-.874608E-01
       N       E                     dE             d eps       ncg     rms          rms(c)
DAV:   1    -0.233894413623E+03    0.13385E-01   -0.25712E+00  3368   0.480E+00    0.614E-01
DAV:   2    -0.233911670352E+03   -0.17257E-01   -0.20925E-01  4256   0.146E+00    0.327E-01
DAV:   3    -0.233911079474E+03    0.59088E-03   -0.78499E-03  5736   0.284E-01    0.245E-01
DAV:   4    -0.233910639693E+03    0.43978E-03   -0.12730E-03  5328   0.112E-01    0.978E-02
DAV:   5    -0.233910566236E+03    0.73457E-04   -0.42914E-04  5032   0.527E-02    0.292E-02
DAV:   6    -0.233910574764E+03   -0.85284E-05   -0.68602E-05  5848   0.196E-02    0.267E-02
DAV:   7    -0.233910576755E+03   -0.19913E-05   -0.70595E-06  3792   0.790E-03    0.141E-02
DAV:   8    -0.233910578641E+03   -0.18852E-05   -0.26243E-06  2360   0.574E-03    0.399E-03
DAV:   9    -0.233910579042E+03   -0.40125E-06   -0.11189E-06  2000   0.501E-03
   6 F= -.23391058E+03 E0= -.23391058E+03  d E =-.902405E-01
       N       E                     dE             d eps       ncg     rms          rms(c)
DAV:   1    -0.233809904951E+03    0.10067E+00   -0.20519E+01  3600   0.169E+01    0.197E+00
DAV:   2    -0.233969189912E+03   -0.15928E+00   -0.22664E+00  3984   0.411E+00    0.869E-01
DAV:   3    -0.233963319070E+03    0.58708E-02   -0.11552E-01  5784   0.988E-01    0.667E-01
DAV:   4    -0.233958687940E+03    0.46311E-02   -0.15811E-02  5032   0.420E-01    0.267E-01
DAV:   5    -0.233958231352E+03    0.45659E-03   -0.29216E-03  5248   0.140E-01    0.132E-01
DAV:   6    -0.233958172706E+03    0.58645E-04   -0.46862E-04  6016   0.766E-02    0.810E-02
DAV:   7    -0.233958153685E+03    0.19021E-04   -0.14173E-04  5528   0.364E-02    0.236E-02
DAV:   8    -0.233958148023E+03    0.56619E-05   -0.31533E-05  5896   0.166E-02    0.168E-02
DAV:   9    -0.233958147282E+03    0.74109E-06   -0.14838E-05  4200   0.936E-03    0.513E-03
DAV:  10    -0.233958146841E+03    0.44130E-06   -0.14213E-06  2184   0.464E-03
   7 F= -.23395815E+03 E0= -.23395815E+03  d E =-.475678E-01
       N       E                     dE             d eps       ncg     rms          rms(c)
DAV:   1    -0.233925115780E+03    0.33032E-01   -0.54243E+00  3528   0.867E+00    0.101E+00
DAV:   2    -0.233968468777E+03   -0.43353E-01   -0.61190E-01  4072   0.215E+00    0.460E-01
DAV:   3    -0.233966281331E+03    0.21874E-02   -0.26689E-02  5720   0.484E-01    0.349E-01
DAV:   4    -0.233965052517E+03    0.12288E-02   -0.40055E-03  5064   0.207E-01    0.139E-01
DAV:   5    -0.233964897273E+03    0.15524E-03   -0.77004E-04  5192   0.718E-02    0.689E-02
DAV:   6    -0.233964871867E+03    0.25406E-04   -0.12804E-04  5984   0.386E-02    0.403E-02
DAV:   7    -0.233964861231E+03    0.10636E-04   -0.37686E-05  5728   0.184E-02    0.131E-02
DAV:   8    -0.233964859242E+03    0.19897E-05   -0.65187E-06  4144   0.810E-03    0.907E-03
DAV:   9    -0.233964858573E+03    0.66917E-06   -0.48311E-06  3056   0.566E-03
   8 F= -.23396486E+03 E0= -.23396486E+03  d E =-.542795E-01
       N       E                     dE             d eps       ncg     rms          rms(c)
DAV:   1    -0.233869320923E+03    0.95538E-01   -0.15575E+01  3328   0.138E+01    0.124E+00
DAV:   2    -0.233993866784E+03   -0.12455E+00   -0.14302E+00  4216   0.342E+00    0.545E-01
DAV:   3    -0.233993753660E+03    0.11312E-03   -0.56100E-02  5760   0.681E-01    0.439E-01
DAV:   4    -0.233992497290E+03    0.12564E-02   -0.48860E-03  5480   0.213E-01    0.214E-01
DAV:   5    -0.233991808291E+03    0.68900E-03   -0.25368E-03  4848   0.140E-01    0.730E-02
DAV:   6    -0.233991851256E+03   -0.42965E-04   -0.73315E-04  4856   0.623E-02    0.688E-02
DAV:   7    -0.233991839372E+03    0.11884E-04   -0.13026E-04  5648   0.259E-02    0.342E-02
DAV:   8    -0.233991832613E+03    0.67592E-05   -0.18077E-05  5128   0.145E-02    0.173E-02
DAV:   9    -0.233991830073E+03    0.25398E-05   -0.95139E-06  4392   0.928E-03    0.927E-03
DAV:  10    -0.233991829987E+03    0.86562E-07   -0.23165E-06  2368   0.513E-03
   9 F= -.23399183E+03 E0= -.23399183E+03  d E =-.269714E-01
       N       E                     dE             d eps       ncg     rms          rms(c)
DAV:   1    -0.233984563597E+03    0.72665E-02   -0.11560E+00  3328   0.376E+00    0.335E-01
DAV:   2    -0.233993644207E+03   -0.90806E-02   -0.10435E-01  4232   0.928E-01    0.147E-01
DAV:   3    -0.233993597023E+03    0.47184E-04   -0.37839E-03  5712   0.183E-01    0.117E-01
DAV:   4    -0.233993502777E+03    0.94246E-04   -0.35201E-04  5496   0.556E-02    0.553E-02
DAV:   5    -0.233993454778E+03    0.47999E-04   -0.17540E-04  5064   0.371E-02    0.192E-02
DAV:   6    -0.233993455833E+03   -0.10548E-05   -0.46767E-05  4752   0.158E-02    0.188E-02
DAV:   7    -0.233993453983E+03    0.18496E-05   -0.81005E-06  4040   0.701E-03    0.920E-03
DAV:   8    -0.233993452681E+03    0.13023E-05   -0.12840E-06  2344   0.497E-03    0.474E-03
DAV:   9    -0.233993452295E+03    0.38600E-06   -0.79081E-07  1984   0.432E-03
  10 F= -.23399345E+03 E0= -.23399345E+03  d E =-.285937E-01
       N       E                     dE             d eps       ncg     rms          rms(c)
DAV:   1    -0.233950678964E+03    0.42774E-01   -0.93798E+00  3416   0.104E+01    0.112E+00
DAV:   2    -0.234014100953E+03   -0.63422E-01   -0.80579E-01  4240   0.273E+00    0.570E-01
DAV:   3    -0.234011839882E+03    0.22611E-02   -0.29449E-02  5752   0.534E-01    0.426E-01
DAV:   4    -0.234010413326E+03    0.14266E-02   -0.45603E-03  5280   0.206E-01    0.165E-01
DAV:   5    -0.234010190202E+03    0.22312E-03   -0.12240E-03  5240   0.911E-02    0.642E-02
DAV:   6    -0.234010211114E+03   -0.20913E-04   -0.17986E-04  5832   0.376E-02    0.527E-02
DAV:   7    -0.234010220186E+03   -0.90720E-05   -0.28852E-05  5248   0.150E-02    0.237E-02
DAV:   8    -0.234010223423E+03   -0.32363E-05   -0.74114E-06  3776   0.781E-03    0.121E-02
DAV:   9    -0.234010223952E+03   -0.52966E-06   -0.20248E-06  2160   0.502E-03
  11 F= -.23401022E+03 E0= -.23401022E+03  d E =-.167717E-01
       N       E                     dE             d eps       ncg     rms          rms(c)
DAV:   1    -0.234002482098E+03    0.77413E-02   -0.14642E+00  3440   0.413E+00    0.442E-01
DAV:   2    -0.234012384165E+03   -0.99021E-02   -0.12593E-01  4184   0.107E+00    0.222E-01
DAV:   3    -0.234012033651E+03    0.35051E-03   -0.46565E-03  5632   0.217E-01    0.167E-01
DAV:   4    -0.234011817532E+03    0.21612E-03   -0.71650E-04  5352   0.834E-02    0.644E-02
DAV:   5    -0.234011786179E+03    0.31353E-04   -0.19458E-04  5200   0.360E-02    0.254E-02
DAV:   6    -0.234011793191E+03   -0.70121E-05   -0.28821E-05  5616   0.151E-02    0.210E-02
DAV:   7    -0.234011796240E+03   -0.30487E-05   -0.34438E-06  2736   0.635E-03    0.106E-02
DAV:   8    -0.234011797818E+03   -0.15779E-05   -0.13639E-06  2200   0.551E-03    0.404E-03
DAV:   9    -0.234011798102E+03   -0.28367E-06   -0.89530E-07  1984   0.450E-03
  12 F= -.23401180E+03 E0= -.23401180E+03  d E =-.183458E-01
       N       E                     dE             d eps       ncg     rms          rms(c)
DAV:   1    -0.233951351505E+03    0.60446E-01   -0.10269E+01  3328   0.110E+01    0.102E+00
DAV:   2    -0.234027408699E+03   -0.76057E-01   -0.88156E-01  4200   0.278E+00    0.486E-01
DAV:   3    -0.234027199248E+03    0.20945E-03   -0.34065E-02  5848   0.558E-01    0.379E-01
DAV:   4    -0.234026312307E+03    0.88694E-03   -0.32001E-03  5456   0.181E-01    0.173E-01
DAV:   5    -0.234025982016E+03    0.33029E-03   -0.14433E-03  4968   0.101E-01    0.540E-02
DAV:   6    -0.234025995243E+03   -0.13227E-04   -0.25140E-04  4760   0.376E-02    0.493E-02
DAV:   7    -0.234025994029E+03    0.12132E-05   -0.47748E-05  5808   0.156E-02    0.260E-02
DAV:   8    -0.234025990415E+03    0.36140E-05   -0.59545E-06  3728   0.857E-03    0.144E-02
DAV:   9    -0.234025989255E+03    0.11609E-05   -0.22140E-06  2192   0.562E-03    0.685E-03
DAV:  10    -0.234025989384E+03   -0.12993E-06   -0.10312E-06  2032   0.509E-03
  13 F= -.23402599E+03 E0= -.23402599E+03  d E =-.141913E-01
       N       E                     dE             d eps       ncg     rms          rms(c)
DAV:   1    -0.234013101691E+03    0.12888E-01   -0.20300E+00  3328   0.491E+00    0.454E-01
DAV:   2    -0.234028031586E+03   -0.14930E-01   -0.17307E-01  4232   0.124E+00    0.212E-01
DAV:   3    -0.234027932805E+03    0.98781E-04   -0.62158E-03  5824   0.245E-01    0.164E-01
DAV:   4    -0.234027757350E+03    0.17546E-03   -0.63425E-04  5632   0.768E-02    0.734E-02
DAV:   5    -0.234027695564E+03    0.61786E-04   -0.26337E-04  4944   0.432E-02    0.235E-02
DAV:   6    -0.234027695751E+03   -0.18750E-06   -0.44883E-05  4664   0.162E-02    0.217E-02
DAV:   7    -0.234027694465E+03    0.12866E-05   -0.83955E-06  4112   0.687E-03    0.114E-02
DAV:   8    -0.234027692916E+03    0.15487E-05   -0.12057E-06  2104   0.473E-03    0.575E-03
DAV:   9    -0.234027692484E+03    0.43184E-06   -0.83719E-07  1984   0.462E-03
  14 F= -.23402769E+03 E0= -.23402769E+03  d E =-.158944E-01
       N       E                     dE             d eps       ncg     rms          rms(c)
DAV:   1    -0.233958078504E+03    0.69614E-01   -0.79551E+00  3336   0.110E+01    0.967E-01
DAV:   2    -0.234039907868E+03   -0.81829E-01   -0.93185E-01  4272   0.276E+00    0.430E-01
DAV:   3    -0.234039666727E+03    0.24114E-03   -0.28544E-02  5728   0.514E-01    0.341E-01
DAV:   4    -0.234038850971E+03    0.81576E-03   -0.29239E-03  5480   0.159E-01    0.163E-01
DAV:   5    -0.234038587894E+03    0.26308E-03   -0.12379E-03  4816   0.926E-02    0.535E-02
DAV:   6    -0.234038600835E+03   -0.12941E-04   -0.25372E-04  5032   0.376E-02    0.471E-02
DAV:   7    -0.234038599471E+03    0.13643E-05   -0.41077E-05  5824   0.148E-02    0.251E-02
DAV:   8    -0.234038594744E+03    0.47273E-05   -0.60420E-06  3576   0.915E-03    0.144E-02
DAV:   9    -0.234038593695E+03    0.10484E-05   -0.22978E-06  2128   0.575E-03    0.761E-03
DAV:  10    -0.234038593710E+03   -0.14374E-07   -0.10300E-06  1984   0.558E-03
  15 F= -.23403859E+03 E0= -.23403859E+03  d E =-.109012E-01
       N       E                     dE             d eps       ncg     rms          rms(c)
DAV:   1    -0.234037187653E+03    0.14060E-02   -0.16292E-01  3344   0.157E+00    0.138E-01
DAV:   2    -0.234038851343E+03   -0.16637E-02   -0.18917E-02  4296   0.395E-01    0.615E-02
DAV:   3    -0.234038842884E+03    0.84590E-05   -0.55095E-04  5640   0.724E-02    0.482E-02
DAV:   4    -0.234038825861E+03    0.17023E-04   -0.59614E-05  5552   0.224E-02    0.227E-02
DAV:   5    -0.234038819591E+03    0.62696E-05   -0.23562E-05  4752   0.128E-02    0.761E-03
DAV:   6    -0.234038818824E+03    0.76710E-06   -0.37968E-06  2824   0.533E-03
  16 F= -.23403882E+03 E0= -.23403882E+03  d E =-.111263E-01
       N       E                     dE             d eps       ncg     rms          rms(c)
DAV:   1    -0.234010715725E+03    0.28104E-01   -0.34561E+00  3328   0.726E+00    0.694E-01
DAV:   2    -0.234047660149E+03   -0.36944E-01   -0.41472E-01  4184   0.189E+00    0.303E-01
DAV:   3    -0.234047284655E+03    0.37549E-03   -0.13265E-02  5784   0.365E-01    0.233E-01
DAV:   4    -0.234046913133E+03    0.37152E-03   -0.12814E-03  5560   0.947E-02    0.114E-01
DAV:   5    -0.234046744409E+03    0.16872E-03   -0.67432E-04  4480   0.691E-02    0.398E-02
DAV:   6    -0.234046762809E+03   -0.18400E-04   -0.21173E-04  4704   0.330E-02    0.366E-02
DAV:   7    -0.234046762266E+03    0.54280E-06   -0.33163E-05  5312   0.131E-02    0.206E-02
DAV:   8    -0.234046763119E+03   -0.85258E-06   -0.38102E-06  2888   0.693E-03
  17 F= -.23404676E+03 E0= -.23404676E+03  d E =-.794429E-02
       N       E                     dE             d eps       ncg     rms          rms(c)
DAV:   1    -0.234045741768E+03    0.10205E-02   -0.11494E-01  3336   0.133E+00    0.129E-01
DAV:   2    -0.234046981124E+03   -0.12394E-02   -0.13909E-02  4232   0.345E-01    0.551E-02
DAV:   3    -0.234046967205E+03    0.13919E-04   -0.43631E-04  5736   0.664E-02    0.426E-02
DAV:   4    -0.234046954807E+03    0.12398E-04   -0.43857E-05  5496   0.176E-02    0.209E-02
DAV:   5    -0.234046949620E+03    0.51868E-05   -0.22453E-05  4088   0.128E-02    0.717E-03
DAV:   6    -0.234046950507E+03   -0.88705E-06   -0.76010E-06  3608   0.668E-03
  18 F= -.23404695E+03 E0= -.23404695E+03  d E =-.813168E-02
       N       E                     dE             d eps       ncg     rms          rms(c)
DAV:   1    -0.234026801082E+03    0.20149E-01   -0.37774E+00  3264   0.628E+00    0.679E-01
DAV:   2    -0.234054812143E+03   -0.28011E-01   -0.31259E-01  4336   0.179E+00    0.287E-01
DAV:   3    -0.234054329423E+03    0.48272E-03   -0.93085E-03  5864   0.319E-01    0.227E-01
DAV:   4    -0.234054048186E+03    0.28124E-03   -0.10653E-03  5544   0.927E-02    0.109E-01
DAV:   5    -0.234053896718E+03    0.15147E-03   -0.58619E-04  4680   0.632E-02    0.368E-02
DAV:   6    -0.234053910713E+03   -0.13995E-04   -0.17641E-04  4704   0.300E-02    0.279E-02
DAV:   7    -0.234053908974E+03    0.17390E-05   -0.23321E-05  5600   0.109E-02    0.155E-02
DAV:   8    -0.234053907570E+03    0.14040E-05   -0.23035E-06  2640   0.615E-03    0.807E-03
DAV:   9    -0.234053906933E+03    0.63754E-06   -0.15732E-06  2104   0.492E-03
  19 F= -.23405391E+03 E0= -.23405391E+03  d E =-.695643E-02
       N       E                     dE             d eps       ncg     rms          rms(c)
DAV:   1    -0.234051537805E+03    0.23698E-02   -0.40377E-01  3264   0.206E+00    0.220E-01
DAV:   2    -0.234054538176E+03   -0.30004E-02   -0.33427E-02  4336   0.585E-01    0.935E-02
DAV:   3    -0.234054483788E+03    0.54388E-04   -0.96285E-04  5816   0.104E-01    0.741E-02
DAV:   4    -0.234054451845E+03    0.31943E-04   -0.11613E-04  5584   0.302E-02    0.352E-02
DAV:   5    -0.234054435577E+03    0.16268E-04   -0.62092E-05  4696   0.204E-02    0.118E-02
DAV:   6    -0.234054436647E+03   -0.10702E-05   -0.17577E-05  4216   0.959E-03    0.897E-03
DAV:   7    -0.234054436162E+03    0.48540E-06   -0.12467E-06  2064   0.392E-03
  20 F= -.23405444E+03 E0= -.23405444E+03  d E =-.748565E-02
       N       E                     dE             d eps       ncg     rms          rms(c)
DAV:   1    -0.234037307876E+03    0.17129E-01   -0.24281E+00  3336   0.572E+00    0.528E-01
DAV:   2    -0.234059316611E+03   -0.22009E-01   -0.25100E-01  4136   0.143E+00    0.240E-01
DAV:   3    -0.234059174385E+03    0.14223E-03   -0.84280E-03  5688   0.279E-01    0.188E-01
DAV:   4    -0.234058931642E+03    0.24274E-03   -0.82819E-04  5480   0.828E-02    0.893E-02
DAV:   5    -0.234058837878E+03    0.93763E-04   -0.38603E-04  4936   0.521E-02    0.298E-02
DAV:   6    -0.234058841213E+03   -0.33344E-05   -0.89074E-05  4744   0.217E-02    0.274E-02
DAV:   7    -0.234058839794E+03    0.14191E-05   -0.15943E-05  5120   0.912E-03    0.146E-02
DAV:   8    -0.234058837734E+03    0.20593E-05   -0.14280E-06  2200   0.519E-03    0.830E-03
DAV:   9    -0.234058837099E+03    0.63498E-06   -0.10637E-06  1984   0.493E-03
  21 F= -.23405884E+03 E0= -.23405884E+03  d E =-.440094E-02
       N       E                     dE             d eps       ncg     rms          rms(c)
DAV:   1    -0.234057331452E+03    0.15063E-02   -0.20395E-01  3336   0.166E+00    0.154E-01
DAV:   2    -0.234059175355E+03   -0.18439E-02   -0.20989E-02  4168   0.416E-01    0.690E-02
DAV:   3    -0.234059159779E+03    0.15577E-04   -0.67554E-04  5656   0.804E-02    0.533E-02
DAV:   4    -0.234059138693E+03    0.21085E-04   -0.71226E-05  5544   0.240E-02    0.249E-02
DAV:   5    -0.234059130268E+03    0.84258E-05   -0.30476E-05  4664   0.147E-02    0.841E-03
DAV:   6    -0.234059129796E+03    0.47152E-06   -0.64926E-06  3432   0.653E-03
  22 F= -.23405913E+03 E0= -.23405913E+03  d E =-.469363E-02
       N       E                     dE             d eps       ncg     rms          rms(c)
DAV:   1    -0.234054070805E+03    0.50595E-02   -0.16540E+00  3328   0.381E+00    0.359E-01
DAV:   2    -0.234063107597E+03   -0.90368E-02   -0.10071E-01  4200   0.971E-01    0.152E-01
DAV:   3    -0.234063100508E+03    0.70891E-05   -0.37730E-03  5768   0.183E-01    0.120E-01
DAV:   4    -0.234063038511E+03    0.61997E-04   -0.33760E-04  5712   0.566E-02    0.548E-02
DAV:   5    -0.234063004384E+03    0.34127E-04   -0.16779E-04  4872   0.342E-02    0.180E-02
DAV:   6    -0.234063008204E+03   -0.38203E-05   -0.44002E-05  4368   0.149E-02    0.144E-02
DAV:   7    -0.234063007889E+03    0.31510E-06   -0.63895E-06  3608   0.597E-03
  23 F= -.23406301E+03 E0= -.23406301E+03  d E =-.387809E-02
       N       E                     dE             d eps       ncg     rms          rms(c)
DAV:   1    -0.233980845049E+03    0.82163E-01   -0.14797E+01  3328   0.114E+01    0.110E+00
DAV:   2    -0.234064463128E+03   -0.83618E-01   -0.93184E-01  4216   0.291E+00    0.461E-01
DAV:   3    -0.234065232621E+03   -0.76949E-03   -0.42692E-02  5888   0.555E-01    0.367E-01
DAV:   4    -0.234064699916E+03    0.53270E-03   -0.31881E-03  5680   0.178E-01    0.175E-01
DAV:   5    -0.234064325608E+03    0.37431E-03   -0.16042E-03  4704   0.107E-01    0.616E-02
DAV:   6    -0.234064377617E+03   -0.52009E-04   -0.52898E-04  4792   0.509E-02    0.413E-02
DAV:   7    -0.234064376101E+03    0.15166E-05   -0.80612E-05  5672   0.192E-02    0.252E-02
DAV:   8    -0.234064376319E+03   -0.21830E-06   -0.10667E-05  4216   0.978E-03    0.114E-02
DAV:   9    -0.234064375071E+03    0.12477E-05   -0.49446E-06  3016   0.677E-03    0.407E-03
DAV:  10    -0.234064375304E+03   -0.23252E-06   -0.35713E-06  2296   0.504E-03
  24 F= -.23406438E+03 E0= -.23406438E+03  d E =-.524551E-02
       N       E                     dE             d eps       ncg     rms          rms(c)
DAV:   1    -0.234044858488E+03    0.19517E-01   -0.38826E+00  3328   0.585E+00    0.552E-01
DAV:   2    -0.234066222596E+03   -0.21364E-01   -0.23809E-01  4184   0.150E+00    0.233E-01
DAV:   3    -0.234066214068E+03    0.85287E-05   -0.90556E-03  5784   0.280E-01    0.183E-01
DAV:   4    -0.234066074132E+03    0.13994E-03   -0.81157E-04  5736   0.864E-02    0.843E-02
DAV:   5    -0.234065998544E+03    0.75588E-04   -0.39991E-04  4856   0.523E-02    0.277E-02
DAV:   6    -0.234066010344E+03   -0.11800E-04   -0.99795E-05  4816   0.224E-02    0.217E-02
DAV:   7    -0.234066010755E+03   -0.41178E-06   -0.14475E-05  5080   0.835E-03    0.123E-02
DAV:   8    -0.234066011485E+03   -0.72913E-06   -0.15450E-06  2200   0.437E-03
  25 F= -.23406601E+03 E0= -.23406601E+03  d E =-.688169E-02
       N       E                     dE             d eps       ncg     rms          rms(c)
DAV:   1    -0.234056250941E+03    0.97598E-02   -0.25688E+00  3328   0.493E+00    0.364E-01
DAV:   2    -0.234070342061E+03   -0.14091E-01   -0.15540E-01  4264   0.109E+00    0.151E-01
DAV:   3    -0.234070466954E+03   -0.12489E-03   -0.58068E-03  5664   0.212E-01    0.118E-01
DAV:   4    -0.234070417439E+03    0.49515E-04   -0.43795E-04  5832   0.615E-02    0.581E-02
DAV:   5    -0.234070385794E+03    0.31645E-04   -0.19761E-04  4816   0.379E-02    0.206E-02
DAV:   6    -0.234070392363E+03   -0.65691E-05   -0.50703E-05  4544   0.162E-02    0.180E-02
DAV:   7    -0.234070392694E+03   -0.33147E-06   -0.11449E-05  4384   0.787E-03    0.986E-03
DAV:   8    -0.234070393644E+03   -0.94985E-06   -0.19378E-06  2264   0.465E-03
  26 F= -.23407039E+03 E0= -.23407039E+03  d E =-.438216E-02
       N       E                     dE             d eps       ncg     rms          rms(c)
DAV:   1    -0.234069785206E+03    0.60749E-03   -0.14704E-01  3328   0.118E+00    0.862E-02
DAV:   2    -0.234070586499E+03   -0.80129E-03   -0.88446E-03  4320   0.262E-01    0.364E-02
DAV:   3    -0.234070591141E+03   -0.46425E-05   -0.30747E-04  5672   0.508E-02    0.283E-02
DAV:   4    -0.234070588373E+03    0.27687E-05   -0.25164E-05  5744   0.147E-02    0.139E-02
DAV:   5    -0.234070587002E+03    0.13700E-05   -0.10862E-05  4040   0.907E-03    0.495E-03
DAV:   6    -0.234070587486E+03   -0.48345E-06   -0.24652E-06  2376   0.442E-03
  27 F= -.23407059E+03 E0= -.23407059E+03  d E =-.457600E-02
       N       E                     dE             d eps       ncg     rms          rms(c)
DAV:   1    -0.234068146955E+03    0.24400E-02   -0.89396E-01  3328   0.303E+00    0.216E-01
DAV:   2    -0.234072927800E+03   -0.47808E-02   -0.53171E-02  4392   0.671E-01    0.900E-02
DAV:   3    -0.234072954865E+03   -0.27065E-04   -0.20581E-03  5816   0.133E-01    0.706E-02
DAV:   4    -0.234072932915E+03    0.21950E-04   -0.17353E-04  5952   0.383E-02    0.344E-02
DAV:   5    -0.234072917372E+03    0.15543E-04   -0.72326E-05  4608   0.237E-02    0.122E-02
DAV:   6    -0.234072919483E+03   -0.21112E-05   -0.22220E-05  4384   0.110E-02    0.119E-02
DAV:   7    -0.234072919255E+03    0.22884E-06   -0.38171E-06  3064   0.535E-03
  28 F= -.23407292E+03 E0= -.23407292E+03  d E =-.233177E-02
       N       E                     dE             d eps       ncg     rms          rms(c)
DAV:   1    -0.234071985353E+03    0.93413E-03   -0.23395E-01  3328   0.155E+00    0.110E-01
DAV:   2    -0.234073235345E+03   -0.12500E-02   -0.13912E-02  4392   0.342E-01    0.458E-02
DAV:   3    -0.234073241528E+03   -0.61833E-05   -0.52835E-04  5792   0.679E-02    0.358E-02
DAV:   4    -0.234073235712E+03    0.58158E-05   -0.45978E-05  5928   0.197E-02    0.174E-02
DAV:   5    -0.234073231726E+03    0.39861E-05   -0.18710E-05  4256   0.122E-02    0.617E-03
DAV:   6    -0.234073232193E+03   -0.46667E-06   -0.53116E-06  3264   0.597E-03
  29 F= -.23407323E+03 E0= -.23407323E+03  d E =-.264471E-02
       N       E                     dE             d eps       ncg     rms          rms(c)
DAV:   1    -0.234070857310E+03    0.23744E-02   -0.42963E-01  3336   0.229E+00    0.223E-01
DAV:   2    -0.234074420629E+03   -0.35633E-02   -0.40304E-02  4296   0.599E-01    0.973E-02
DAV:   3    -0.234074388099E+03    0.32531E-04   -0.15515E-03  5632   0.119E-01    0.767E-02
DAV:   4    -0.234074351053E+03    0.37046E-04   -0.15380E-04  5728   0.348E-02    0.367E-02
DAV:   5    -0.234074333145E+03    0.17908E-04   -0.83868E-05  4728   0.241E-02    0.128E-02
DAV:   6    -0.234074335534E+03   -0.23895E-05   -0.21669E-05  4328   0.108E-02    0.121E-02
DAV:   7    -0.234074335525E+03    0.91604E-08   -0.23289E-06  2376   0.476E-03
  30 F= -.23407434E+03 E0= -.23407434E+03  d E =-.110333E-02
       N       E                     dE             d eps       ncg     rms          rms(c)
DAV:   1    -0.234074010416E+03    0.32512E-03   -0.48514E-02  3360   0.768E-01    0.761E-02
DAV:   2    -0.234074416696E+03   -0.40628E-03   -0.45935E-03  4296   0.202E-01    0.331E-02
DAV:   3    -0.234074412763E+03    0.39329E-05   -0.17686E-04  5616   0.404E-02    0.262E-02
DAV:   4    -0.234074408506E+03    0.42567E-05   -0.17936E-05  5456   0.120E-02    0.125E-02
DAV:   5    -0.234074406751E+03    0.17557E-05   -0.95021E-06  3864   0.839E-03    0.418E-03
DAV:   6    -0.234074407086E+03   -0.33583E-06   -0.21211E-06  2288   0.438E-03
  31 F= -.23407441E+03 E0= -.23407441E+03  d E =-.117489E-02
       N       E                     dE             d eps       ncg     rms          rms(c)
DAV:   1    -0.234072361725E+03    0.20450E-02   -0.37877E-01  3336   0.188E+00    0.228E-01
DAV:   2    -0.234075278116E+03   -0.29164E-02   -0.32739E-02  4264   0.562E-01    0.999E-02
DAV:   3    -0.234075252577E+03    0.25538E-04   -0.12899E-03  5640   0.107E-01    0.778E-02
DAV:   4    -0.234075221690E+03    0.30887E-04   -0.12406E-04  5712   0.313E-02    0.383E-02
DAV:   5    -0.234075203987E+03    0.17703E-04   -0.72663E-05  4632   0.209E-02    0.135E-02
DAV:   6    -0.234075205446E+03   -0.14593E-05   -0.18749E-05  3984   0.963E-03    0.769E-03
DAV:   7    -0.234075205179E+03    0.26755E-06   -0.12307E-06  2176   0.351E-03
  32 F= -.23407521E+03 E0= -.23407521E+03  d E =-.798092E-03
       N       E                     dE             d eps       ncg     rms          rms(c)
DAV:   1    -0.234074618416E+03    0.58703E-03   -0.95290E-02  3344   0.941E-01    0.114E-01
DAV:   2    -0.234075350691E+03   -0.73228E-03   -0.82004E-03  4256   0.281E-01    0.505E-02
DAV:   3    -0.234075344619E+03    0.60725E-05   -0.32751E-04  5640   0.537E-02    0.392E-02
DAV:   4    -0.234075336614E+03    0.80047E-05   -0.31330E-05  5560   0.158E-02    0.192E-02
DAV:   5    -0.234075331915E+03    0.46989E-05   -0.18103E-05  4152   0.106E-02    0.668E-03
DAV:   6    -0.234075332165E+03   -0.24936E-06   -0.45588E-06  2976   0.525E-03
  33 F= -.23407533E+03 E0= -.23407533E+03  d E =-.925078E-03
       N       E                     dE             d eps       ncg     rms          rms(c)
DAV:   1    -0.234073913186E+03    0.14187E-02   -0.27716E-01  3328   0.166E+00    0.185E-01
DAV:   2    -0.234075942498E+03   -0.20293E-02   -0.23147E-02  4328   0.469E-01    0.800E-02
DAV:   3    -0.234075928484E+03    0.14013E-04   -0.91878E-04  5560   0.914E-02    0.632E-02
DAV:   4    -0.234075906425E+03    0.22060E-04   -0.88990E-05  5736   0.266E-02    0.309E-02
DAV:   5    -0.234075894875E+03    0.11549E-04   -0.51088E-05  4536   0.184E-02    0.989E-03
DAV:   6    -0.234075896144E+03   -0.12685E-05   -0.12799E-05  3824   0.843E-03    0.773E-03
DAV:   7    -0.234075896015E+03    0.12861E-06   -0.84979E-07  1984   0.358E-03
  34 F= -.23407590E+03 E0= -.23407590E+03  d E =-.563851E-03
       N       E                     dE             d eps       ncg     rms          rms(c)
DAV:   1    -0.234074933770E+03    0.96237E-03   -0.15256E-01  3328   0.123E+00    0.137E-01
DAV:   2    -0.234076053802E+03   -0.11200E-02   -0.12737E-02  4344   0.348E-01    0.599E-02
DAV:   3    -0.234076045120E+03    0.86817E-05   -0.50379E-04  5560   0.674E-02    0.473E-02
DAV:   4    -0.234076032610E+03    0.12510E-04   -0.49568E-05  5648   0.199E-02    0.231E-02
DAV:   5    -0.234076026214E+03    0.63965E-05   -0.28231E-05  4344   0.138E-02    0.730E-03
DAV:   6    -0.234076026925E+03   -0.71169E-06   -0.71475E-06  3376   0.653E-03
  35 F= -.23407603E+03 E0= -.23407603E+03  d E =-.694761E-03
       N       E                     dE             d eps       ncg     rms          rms(c)
DAV:   1    -0.234075546794E+03    0.47942E-03   -0.17273E-01  3272   0.112E+00    0.137E-01
DAV:   2    -0.234076494104E+03   -0.94731E-03   -0.10808E-02  4656   0.331E-01    0.599E-02
DAV:   3    -0.234076482230E+03    0.11875E-04   -0.42682E-04  5560   0.610E-02    0.462E-02
DAV:   4    -0.234076473081E+03    0.91483E-05   -0.42964E-05  5472   0.185E-02    0.222E-02
DAV:   5    -0.234076467980E+03    0.51012E-05   -0.24793E-05  4496   0.128E-02    0.689E-03
DAV:   6    -0.234076468688E+03   -0.70815E-06   -0.59298E-06  3176   0.586E-03
  36 F= -.23407647E+03 E0= -.23407647E+03  d E =-.441763E-03
       N       E                     dE             d eps       ncg     rms          rms(c)
DAV:   1    -0.234068659390E+03    0.78086E-02   -0.15535E+00  3272   0.336E+00    0.408E-01
DAV:   2    -0.234077191025E+03   -0.85316E-02   -0.97114E-02  4672   0.993E-01    0.181E-01
DAV:   3    -0.234077079346E+03    0.11168E-03   -0.37689E-03  5560   0.181E-01    0.139E-01
DAV:   4    -0.234076996537E+03    0.82809E-04   -0.40195E-04  5768   0.560E-02    0.679E-02
DAV:   5    -0.234076945820E+03    0.50717E-04   -0.22917E-04  4856   0.384E-02    0.206E-02
DAV:   6    -0.234076951688E+03   -0.58684E-05   -0.56284E-05  4368   0.166E-02    0.157E-02
DAV:   7    -0.234076951480E+03    0.20768E-06   -0.62801E-06  3680   0.613E-03
  37 F= -.23407695E+03 E0= -.23407695E+03  d E =-.924555E-03
       N       E                     dE             d eps       ncg     rms          rms(c)
DAV:   1    -0.234076801686E+03    0.15000E-03   -0.94347E-02  3272   0.717E-01    0.995E-02
DAV:   2    -0.234077228104E+03   -0.42642E-03   -0.48345E-03  4784   0.213E-01    0.432E-02
DAV:   3    -0.234077224370E+03    0.37330E-05   -0.20895E-04  5696   0.398E-02    0.329E-02
DAV:   4    -0.234077220545E+03    0.38252E-05   -0.20981E-05  5496   0.129E-02    0.163E-02
DAV:   5    -0.234077217794E+03    0.27514E-05   -0.10252E-05  4264   0.832E-03    0.487E-03
DAV:   6    -0.234077217733E+03    0.61111E-07   -0.21134E-06  2352   0.394E-03
  38 F= -.23407722E+03 E0= -.23407722E+03  d E =-.266252E-03
       N       E                     dE             d eps       ncg     rms          rms(c)
DAV:   1    -0.234074064004E+03    0.31538E-02   -0.84781E-01  3272   0.215E+00    0.293E-01
DAV:   2    -0.234077879774E+03   -0.38158E-02   -0.43193E-02  4744   0.638E-01    0.131E-01
DAV:   3    -0.234077843964E+03    0.35810E-04   -0.18489E-03  5712   0.118E-01    0.100E-01
DAV:   4    -0.234077808996E+03    0.34969E-04   -0.18689E-04  5736   0.379E-02    0.502E-02
DAV:   5    -0.234077786278E+03    0.22718E-04   -0.96598E-05  4960   0.245E-02    0.147E-02
DAV:   6    -0.234077787480E+03   -0.12021E-05   -0.20330E-05  4152   0.977E-03    0.936E-03
DAV:   7    -0.234077787112E+03    0.36783E-06   -0.15860E-06  2256   0.393E-03
  39 F= -.23407779E+03 E0= -.23407779E+03  d E =-.835632E-03
       N       E                     dE             d eps       ncg     rms          rms(c)
DAV:   1    -0.234062522421E+03    0.15265E-01   -0.33884E+00  3272   0.431E+00    0.588E-01
DAV:   2    -0.234077828717E+03   -0.15306E-01   -0.17311E-01  4776   0.127E+00    0.264E-01
DAV:   3    -0.234077728437E+03    0.10028E-03   -0.78068E-03  5784   0.235E-01    0.202E-01
DAV:   4    -0.234077589092E+03    0.13935E-03   -0.75018E-04  5648   0.771E-02    0.102E-01
DAV:   5    -0.234077496805E+03    0.92287E-04   -0.40853E-04  4912   0.503E-02    0.289E-02
DAV:   6    -0.234077504137E+03   -0.73323E-05   -0.87742E-05  4568   0.202E-02    0.190E-02
DAV:   7    -0.234077503686E+03    0.45132E-06   -0.10977E-05  4656   0.726E-03    0.117E-02
DAV:   8    -0.234077503060E+03    0.62558E-06   -0.11952E-06  2296   0.390E-03
  40 F= -.23407750E+03 E0= -.23407750E+03  d E =-.551580E-03
       N       E                     dE             d eps       ncg     rms          rms(c)
DAV:   1    -0.234072505158E+03    0.49985E-02   -0.12399E+00  3272   0.260E+00    0.350E-01
DAV:   2    -0.234078015392E+03   -0.55102E-02   -0.62441E-02  4720   0.768E-01    0.160E-01
DAV:   3    -0.234077976275E+03    0.39116E-04   -0.28106E-03  5728   0.144E-01    0.121E-01
DAV:   4    -0.234077926242E+03    0.50034E-04   -0.28008E-04  5696   0.459E-02    0.603E-02
DAV:   5    -0.234077898627E+03    0.27615E-04   -0.13945E-04  4952   0.295E-02    0.176E-02
DAV:   6    -0.234077902283E+03   -0.36559E-05   -0.27795E-05  4184   0.115E-02    0.114E-02
DAV:   7    -0.234077902601E+03   -0.31807E-06   -0.24660E-06  2496   0.456E-03
  41 F= -.23407790E+03 E0= -.23407790E+03  d E =-.951120E-03
       N       E                     dE             d eps       ncg     rms          rms(c)
DAV:   1    -0.234077929674E+03   -0.27391E-04   -0.14562E-01  3328   0.110E+00    0.975E-02
DAV:   2    -0.234078660513E+03   -0.73084E-03   -0.81405E-03  4280   0.269E-01    0.419E-02
DAV:   3    -0.234078662182E+03   -0.16698E-05   -0.32631E-04  5632   0.533E-02    0.336E-02
DAV:   4    -0.234078657915E+03    0.42676E-05   -0.30925E-05  5864   0.158E-02    0.162E-02
DAV:   5    -0.234078654570E+03    0.33451E-05   -0.14621E-05  4592   0.977E-03    0.587E-03
DAV:   6    -0.234078654554E+03    0.15763E-07   -0.26979E-06  2496   0.403E-03
  42 F= -.23407865E+03 E0= -.23407865E+03  d E =-.751953E-03
       N       E                     dE             d eps       ncg     rms          rms(c)
DAV:   1    -0.234073732138E+03    0.49224E-02   -0.13105E+00  3328   0.331E+00    0.297E-01
DAV:   2    -0.234080340067E+03   -0.66079E-02   -0.73769E-02  4264   0.807E-01    0.124E-01
DAV:   3    -0.234080371085E+03   -0.31018E-04   -0.31378E-03  5672   0.162E-01    0.988E-02
DAV:   4    -0.234080335742E+03    0.35344E-04   -0.28248E-04  5952   0.482E-02    0.476E-02
DAV:   5    -0.234080309089E+03    0.26652E-04   -0.13278E-04  4976   0.295E-02    0.173E-02
DAV:   6    -0.234080311157E+03   -0.20680E-05   -0.28877E-05  4304   0.118E-02    0.123E-02
DAV:   7    -0.234080310525E+03    0.63220E-06   -0.40078E-06  3104   0.552E-03
  43 F= -.23408031E+03 E0= -.23408031E+03  d E =-.240792E-02
       N       E                     dE             d eps       ncg     rms          rms(c)
DAV:   1    -0.234053145437E+03    0.27166E-01   -0.52280E+00  3328   0.661E+00    0.598E-01
DAV:   2    -0.234079767295E+03   -0.26622E-01   -0.29708E-01  4304   0.161E+00    0.246E-01
DAV:   3    -0.234080034337E+03   -0.26704E-03   -0.13951E-02  5808   0.324E-01    0.198E-01
DAV:   4    -0.234079898184E+03    0.13615E-03   -0.11436E-03  5840   0.972E-02    0.968E-02
DAV:   5    -0.234079787604E+03    0.11058E-03   -0.52676E-04  4792   0.594E-02    0.357E-02
DAV:   6    -0.234079799466E+03   -0.11861E-04   -0.13491E-04  4544   0.255E-02    0.243E-02
DAV:   7    -0.234079798318E+03    0.11480E-05   -0.22740E-05  4928   0.110E-02    0.129E-02
DAV:   8    -0.234079797929E+03    0.38812E-06   -0.37529E-06  3120   0.594E-03
  44 F= -.23407980E+03 E0= -.23407980E+03  d E =-.189533E-02
       N       E                     dE             d eps       ncg     rms          rms(c)
DAV:   1    -0.234071304096E+03    0.84942E-02   -0.19031E+00  3328   0.399E+00    0.356E-01
DAV:   2    -0.234080817432E+03   -0.95133E-02   -0.10623E-01  4280   0.973E-01    0.147E-01
DAV:   3    -0.234080859259E+03   -0.41827E-04   -0.45386E-03  5688   0.195E-01    0.118E-01
DAV:   4    -0.234080809893E+03    0.49365E-04   -0.39311E-04  5888   0.566E-02    0.562E-02
DAV:   5    -0.234080776895E+03    0.32999E-04   -0.18147E-04  4912   0.347E-02    0.209E-02
DAV:   6    -0.234080782480E+03   -0.55855E-05   -0.43490E-05  4640   0.142E-02    0.145E-02
DAV:   7    -0.234080783216E+03   -0.73566E-06   -0.71424E-06  4184   0.635E-03
  45 F= -.23408078E+03 E0= -.23408078E+03  d E =-.288061E-02
       N       E                     dE             d eps       ncg     rms          rms(c)
DAV:   1    -0.234081074981E+03   -0.29250E-03   -0.81712E-02  3264   0.651E-01    0.623E-02
DAV:   2    -0.234081350401E+03   -0.27542E-03   -0.30000E-03  4744   0.157E-01    0.281E-02
DAV:   3    -0.234081351604E+03   -0.12024E-05   -0.13308E-04  5664   0.306E-02    0.215E-02
DAV:   4    -0.234081350658E+03    0.94630E-06   -0.12048E-05  5264   0.975E-03    0.998E-03
DAV:   5    -0.234081349827E+03    0.83082E-06   -0.47681E-06  3200   0.570E-03
  46 F= -.23408135E+03 E0= -.23408135E+03  d E =-.566611E-03
       N       E                     dE             d eps       ncg     rms          rms(c)
DAV:   1    -0.234080313905E+03    0.10368E-02   -0.73488E-01  3264   0.195E+00    0.191E-01
DAV:   2    -0.234082795484E+03   -0.24816E-02   -0.27196E-02  4728   0.468E-01    0.801E-02
DAV:   3    -0.234082812922E+03   -0.17438E-04   -0.12585E-03  5736   0.914E-02    0.615E-02
DAV:   4    -0.234082806885E+03    0.60373E-05   -0.10780E-04  5912   0.294E-02    0.284E-02
DAV:   5    -0.234082799915E+03    0.69704E-05   -0.46693E-05  4688   0.170E-02    0.981E-03
DAV:   6    -0.234082801201E+03   -0.12866E-05   -0.11423E-05  3760   0.762E-03    0.646E-03
DAV:   7    -0.234082801069E+03    0.13223E-06   -0.10596E-06  2080   0.349E-03
  47 F= -.23408280E+03 E0= -.23408280E+03  d E =-.201785E-02
       N       E                     dE             d eps       ncg     rms          rms(c)
DAV:   1    -0.234076014228E+03    0.67870E-02   -0.29509E+00  3328   0.390E+00    0.372E-01
DAV:   2    -0.234084477104E+03   -0.84629E-02   -0.94683E-02  4696   0.893E-01    0.163E-01
DAV:   3    -0.234084590889E+03   -0.11379E-03   -0.54685E-03  5744   0.183E-01    0.127E-01
DAV:   4    -0.234084555182E+03    0.35708E-04   -0.46726E-04  5872   0.598E-02    0.610E-02
DAV:   5    -0.234084516930E+03    0.38251E-04   -0.20283E-04  4736   0.352E-02    0.199E-02
DAV:   6    -0.234084522935E+03   -0.60046E-05   -0.55498E-05  4504   0.161E-02    0.140E-02
DAV:   7    -0.234084522638E+03    0.29715E-06   -0.68170E-06  3880   0.608E-03
  48 F= -.23408452E+03 E0= -.23408452E+03  d E =-.373942E-02
       N       E                     dE             d eps       ncg     rms          rms(c)
DAV:   1    -0.234043114769E+03    0.41408E-01   -0.11697E+01  3328   0.778E+00    0.762E-01
DAV:   2    -0.234080486662E+03   -0.37372E-01   -0.41721E-01  4688   0.179E+00    0.325E-01
DAV:   3    -0.234081345110E+03   -0.85845E-03   -0.25654E-02  5904   0.375E-01    0.256E-01
DAV:   4    -0.234081195334E+03    0.14978E-03   -0.20011E-03  5856   0.124E-01    0.126E-01
DAV:   5    -0.234081016493E+03    0.17884E-03   -0.81105E-04  4696   0.708E-02    0.429E-02
DAV:   6    -0.234081043336E+03   -0.26843E-04   -0.24968E-04  4800   0.333E-02    0.271E-02
DAV:   7    -0.234081043330E+03    0.63483E-08   -0.36714E-05  5584   0.128E-02    0.144E-02
DAV:   8    -0.234081044327E+03   -0.99728E-06   -0.51446E-06  3488   0.616E-03
  49 F= -.23408104E+03 E0= -.23408104E+03  d E =-.261112E-03
       N       E                     dE             d eps       ncg     rms          rms(c)
DAV:   1    -0.234056820611E+03    0.24223E-01   -0.76749E+00  3264   0.631E+00    0.628E-01
DAV:   2    -0.234084138884E+03   -0.27318E-01   -0.29910E-01  4704   0.153E+00    0.264E-01
DAV:   3    -0.234084804186E+03   -0.66530E-03   -0.17986E-02  5792   0.305E-01    0.207E-01
DAV:   4    -0.234084747684E+03    0.56502E-04   -0.13623E-03  5840   0.993E-02    0.102E-01
DAV:   5    -0.234084644810E+03    0.10287E-03   -0.54414E-04  4792   0.577E-02    0.363E-02
DAV:   6    -0.234084665256E+03   -0.20446E-04   -0.18548E-04  5072   0.275E-02    0.223E-02
DAV:   7    -0.234084664571E+03    0.68550E-06   -0.26227E-05  5288   0.113E-02    0.136E-02
DAV:   8    -0.234084665771E+03   -0.12006E-05   -0.44695E-06  3232   0.573E-03    0.606E-03
DAV:   9    -0.234084665681E+03    0.90171E-07   -0.14412E-06  2176   0.397E-03
  50 F= -.23408467E+03 E0= -.23408467E+03  d E =-.388247E-02
       N       E                     dE             d eps       ncg     rms          rms(c)
DAV:   1    -0.234084864300E+03   -0.19853E-03   -0.29131E-01  3328   0.161E+00    0.105E-01
DAV:   2    -0.234086217281E+03   -0.13530E-02   -0.14695E-02  4288   0.324E-01    0.407E-02
DAV:   3    -0.234086229867E+03   -0.12586E-04   -0.46286E-04  5760   0.602E-02    0.309E-02
DAV:   4    -0.234086226776E+03    0.30918E-05   -0.35289E-05  5704   0.160E-02    0.155E-02
DAV:   5    -0.234086225286E+03    0.14890E-05   -0.13092E-05  4096   0.101E-02    0.525E-03
DAV:   6    -0.234086225737E+03   -0.45020E-06   -0.31959E-06  2760   0.481E-03
  51 F= -.23408623E+03 E0= -.23408623E+03  d E =-.156006E-02
       N       E                     dE             d eps       ncg     rms          rms(c)
DAV:   1    -0.234076148742E+03    0.10077E-01   -0.26130E+00  3328   0.482E+00    0.318E-01
DAV:   2    -0.234088542623E+03   -0.12394E-01   -0.13464E-01  4296   0.972E-01    0.123E-01
DAV:   3    -0.234088747098E+03   -0.20447E-03   -0.50701E-03  5752   0.182E-01    0.944E-02
DAV:   4    -0.234088719036E+03    0.28062E-04   -0.33144E-04  5704   0.498E-02    0.486E-02
DAV:   5    -0.234088701380E+03    0.17655E-04   -0.12045E-04  4568   0.308E-02    0.168E-02
DAV:   6    -0.234088706425E+03   -0.50449E-05   -0.41712E-05  4624   0.148E-02    0.153E-02
DAV:   7    -0.234088706329E+03    0.95926E-07   -0.11109E-05  4112   0.795E-03    0.941E-03
DAV:   8    -0.234088706761E+03   -0.43178E-06   -0.23755E-06  2296   0.507E-03
  52 F= -.23408871E+03 E0= -.23408871E+03  d E =-.404108E-02
       N       E                     dE             d eps       ncg     rms          rms(c)
DAV:   1    -0.234087443986E+03    0.12623E-02   -0.30861E-01  3328   0.165E+00    0.109E-01
DAV:   2    -0.234088877275E+03   -0.14333E-02   -0.15570E-02  4320   0.334E-01    0.424E-02
DAV:   3    -0.234088890825E+03   -0.13549E-04   -0.49351E-04  5712   0.620E-02    0.324E-02
DAV:   4    -0.234088887839E+03    0.29863E-05   -0.38522E-05  5808   0.169E-02    0.163E-02
DAV:   5    -0.234088886273E+03    0.15659E-05   -0.14271E-05  4040   0.106E-02    0.563E-03
DAV:   6    -0.234088886828E+03   -0.55537E-06   -0.40728E-06  3144   0.521E-03
  53 F= -.23408889E+03 E0= -.23408889E+03  d E =-.422115E-02
       N       E                     dE             d eps       ncg     rms          rms(c)
DAV:   1    -0.234089309407E+03   -0.42313E-03   -0.50791E-01  3280   0.172E+00    0.135E-01
DAV:   2    -0.234090916277E+03   -0.16069E-02   -0.17115E-02  4448   0.360E-01    0.552E-02
DAV:   3    -0.234090927831E+03   -0.11554E-04   -0.62976E-04  5936   0.662E-02    0.411E-02
DAV:   4    -0.234090922849E+03    0.49820E-05   -0.56995E-05  5608   0.207E-02    0.180E-02
DAV:   5    -0.234090920888E+03    0.19610E-05   -0.19400E-05  4448   0.118E-02    0.541E-03
DAV:   6    -0.234090921183E+03   -0.29414E-06   -0.41218E-06  3000   0.552E-03
  54 F= -.23409092E+03 E0= -.23409092E+03  d E =-.203435E-02
       N       E                     dE             d eps       ncg     rms          rms(c)
DAV:   1    -0.234078977032E+03    0.11944E-01   -0.45412E+00  3288   0.515E+00    0.415E-01
DAV:   2    -0.234094121039E+03   -0.15144E-01   -0.16171E-01  4416   0.108E+00    0.166E-01
DAV:   3    -0.234094510618E+03   -0.38958E-03   -0.85104E-03  5872   0.204E-01    0.127E-01
DAV:   4    -0.234094457932E+03    0.52686E-04   -0.56241E-04  5552   0.645E-02    0.592E-02
DAV:   5    -0.234094429723E+03    0.28209E-04   -0.18838E-04  4752   0.371E-02    0.180E-02
DAV:   6    -0.234094436563E+03   -0.68394E-05   -0.65419E-05  5320   0.174E-02    0.184E-02
DAV:   7    -0.234094435925E+03    0.63796E-06   -0.92732E-06  4408   0.739E-03
  55 F= -.23409444E+03 E0= -.23409444E+03  d E =-.554910E-02
       N       E                     dE             d eps       ncg     rms          rms(c)
DAV:   1    -0.234020154164E+03    0.74282E-01   -0.17772E+01  3296   0.103E+01    0.880E-01
DAV:   2    -0.234089311370E+03   -0.69157E-01   -0.74422E-01  4432   0.216E+00    0.331E-01
DAV:   3    -0.234094032358E+03   -0.47210E-02   -0.64973E-02  5912   0.424E-01    0.268E-01
DAV:   4    -0.234093810843E+03    0.22152E-03   -0.30633E-03  5432   0.135E-01    0.139E-01
DAV:   5    -0.234093583934E+03    0.22691E-03   -0.81705E-04  4720   0.731E-02    0.549E-02
DAV:   6    -0.234093626565E+03   -0.42631E-04   -0.43205E-04  5440   0.402E-02    0.293E-02
DAV:   7    -0.234093629816E+03   -0.32507E-05   -0.71552E-05  5040   0.199E-02    0.179E-02
DAV:   8    -0.234093631708E+03   -0.18925E-05   -0.14740E-05  3952   0.104E-02    0.688E-03
DAV:   9    -0.234093631424E+03    0.28435E-06   -0.19637E-06  2272   0.523E-03
  56 F= -.23409363E+03 E0= -.23409363E+03  d E =-.474460E-02
       N       E                     dE             d eps       ncg     rms          rms(c)
DAV:   1    -0.234081060131E+03    0.12572E-01   -0.52217E+00  3336   0.552E+00    0.422E-01
DAV:   2    -0.234095172004E+03   -0.14112E-01   -0.15490E-01  4592   0.109E+00    0.173E-01
DAV:   3    -0.234095513442E+03   -0.34144E-03   -0.85328E-03  5856   0.210E-01    0.139E-01
DAV:   4    -0.234095436798E+03    0.76644E-04   -0.73042E-04  5544   0.665E-02    0.669E-02
DAV:   5    -0.234095394219E+03    0.42579E-04   -0.20963E-04  4712   0.394E-02    0.199E-02
DAV:   6    -0.234095404850E+03   -0.10632E-04   -0.91642E-05  5448   0.191E-02    0.192E-02
DAV:   7    -0.234095405860E+03   -0.10100E-05   -0.11244E-05  4768   0.842E-03    0.107E-02
DAV:   8    -0.234095406488E+03   -0.62756E-06   -0.10686E-06  2104   0.385E-03
  57 F= -.23409541E+03 E0= -.23409541E+03  d E =-.651966E-02
       N       E                     dE             d eps       ncg     rms          rms(c)
DAV:   1    -0.234094655733E+03    0.75013E-03   -0.10846E+00  3264   0.223E+00    0.193E-01
DAV:   2    -0.234097691151E+03   -0.30354E-02   -0.32332E-02  4568   0.472E-01    0.782E-02
DAV:   3    -0.234097713933E+03   -0.22782E-04   -0.12871E-03  5976   0.836E-02    0.566E-02
DAV:   4    -0.234097702768E+03    0.11165E-04   -0.12315E-04  5344   0.286E-02    0.242E-02
DAV:   5    -0.234097701924E+03    0.84401E-06   -0.37054E-05  4768   0.159E-02    0.686E-03
DAV:   6    -0.234097703127E+03   -0.12024E-05   -0.63985E-06  3600   0.628E-03    0.788E-03
DAV:   7    -0.234097703344E+03   -0.21719E-06   -0.99327E-07  2000   0.337E-03
  58 F= -.23409770E+03 E0= -.23409770E+03  d E =-.229686E-02
       N       E                     dE             d eps       ncg     rms          rms(c)
DAV:   1    -0.234072019754E+03    0.25683E-01   -0.96205E+00  3264   0.667E+00    0.609E-01
DAV:   2    -0.234102998758E+03   -0.30979E-01   -0.33169E-01  4592   0.141E+00    0.233E-01
DAV:   3    -0.234104395062E+03   -0.13963E-02   -0.23363E-02  5960   0.262E-01    0.175E-01
DAV:   4    -0.234104277868E+03    0.11719E-03   -0.13830E-03  5360   0.896E-02    0.827E-02
DAV:   5    -0.234104220181E+03    0.57688E-04   -0.37151E-04  4968   0.498E-02    0.240E-02
DAV:   6    -0.234104237541E+03   -0.17360E-04   -0.12350E-04  5584   0.213E-02    0.227E-02
DAV:   7    -0.234104238962E+03   -0.14214E-05   -0.14509E-05  4952   0.954E-03    0.115E-02
DAV:   8    -0.234104240394E+03   -0.14319E-05   -0.23260E-06  2304   0.473E-03    0.494E-03
DAV:   9    -0.234104240797E+03   -0.40234E-06   -0.71991E-07  2136   0.421E-03
  59 F= -.23410424E+03 E0= -.23410424E+03  d E =-.883431E-02
       N       E                     dE             d eps       ncg     rms          rms(c)
DAV:   1    -0.233927462995E+03    0.17678E+00   -0.36679E+01  3264   0.131E+01    0.135E+00
DAV:   2    -0.234098415107E+03   -0.17095E+00   -0.18447E+00  4576   0.284E+00    0.470E-01
DAV:   3    -0.234108068760E+03   -0.96537E-02   -0.13212E-01  6024   0.562E-01    0.368E-01
DAV:   4    -0.234107530031E+03    0.53873E-03   -0.88604E-03  5472   0.185E-01    0.193E-01
DAV:   5    -0.234107017847E+03    0.51218E-03   -0.12463E-03  4968   0.955E-02    0.703E-02
DAV:   6    -0.234107070826E+03   -0.52979E-04   -0.84280E-04  5384   0.497E-02    0.364E-02
DAV:   7    -0.234107091813E+03   -0.20988E-04   -0.14706E-04  6008   0.273E-02    0.251E-02
DAV:   8    -0.234107096673E+03   -0.48594E-05   -0.15444E-05  4656   0.103E-02    0.127E-02
DAV:   9    -0.234107098385E+03   -0.17119E-05   -0.33225E-06  2608   0.579E-03    0.458E-03
DAV:  10    -0.234107098882E+03   -0.49738E-06   -0.21250E-06  2280   0.512E-03
  60 F= -.23410710E+03 E0= -.23410710E+03  d E =-.116924E-01
       N       E                     dE             d eps       ncg     rms          rms(c)
DAV:   1    -0.234098425168E+03    0.86732E-02   -0.34974E+00  3264   0.402E+00    0.359E-01
DAV:   2    -0.234108805278E+03   -0.10380E-01   -0.11061E-01  4504   0.854E-01    0.148E-01
DAV:   3    -0.234109089551E+03   -0.28427E-03   -0.61969E-03  5784   0.156E-01    0.109E-01
DAV:   4    -0.234109040868E+03    0.48682E-04   -0.46408E-04  5304   0.536E-02    0.504E-02
DAV:   5    -0.234109024930E+03    0.15938E-04   -0.14517E-04  4880   0.310E-02    0.127E-02
DAV:   6    -0.234109028772E+03   -0.38420E-05   -0.41678E-05  5584   0.129E-02    0.158E-02
DAV:   7    -0.234109028494E+03    0.27800E-06   -0.28361E-06  2712   0.533E-03
  61 F= -.23410903E+03 E0= -.23410903E+03  d E =-.136220E-01
       N       E                     dE             d eps       ncg     rms          rms(c)
DAV:   1    -0.234095027934E+03    0.14001E-01   -0.47219E+00  3264   0.467E+00    0.416E-01
DAV:   2    -0.234109341711E+03   -0.14314E-01   -0.15260E-01  4496   0.992E-01    0.170E-01
DAV:   3    -0.234109827631E+03   -0.48592E-03   -0.93474E-03  5800   0.183E-01    0.127E-01
DAV:   4    -0.234109765454E+03    0.62177E-04   -0.66076E-04  5256   0.630E-02    0.597E-02
DAV:   5    -0.234109741441E+03    0.24013E-04   -0.20608E-04  4864   0.370E-02    0.152E-02
DAV:   6    -0.234109748159E+03   -0.67183E-05   -0.64229E-05  5656   0.158E-02    0.182E-02
DAV:   7    -0.234109747931E+03    0.22849E-06   -0.49963E-06  3576   0.640E-03
  62 F= -.23410975E+03 E0= -.23410975E+03  d E =-.143414E-01
       N       E                     dE             d eps       ncg     rms          rms(c)
DAV:   1    -0.234106784908E+03    0.29633E-02   -0.12825E+00  3264   0.243E+00    0.209E-01
DAV:   2    -0.234110353544E+03   -0.35686E-02   -0.37984E-02  4520   0.512E-01    0.882E-02
DAV:   3    -0.234110385027E+03   -0.31483E-04   -0.15608E-03  5928   0.912E-02    0.635E-02
DAV:   4    -0.234110370198E+03    0.14829E-04   -0.14591E-04  5312   0.315E-02    0.279E-02
DAV:   5    -0.234110368261E+03    0.19368E-05   -0.46974E-05  4888   0.180E-02    0.759E-03
DAV:   6    -0.234110369607E+03   -0.13461E-05   -0.80502E-06  3840   0.694E-03    0.890E-03
DAV:   7    -0.234110369802E+03   -0.19476E-06   -0.11245E-06  2032   0.349E-03
  63 F= -.23411037E+03 E0= -.23411037E+03  d E =-.149633E-01
       N       E                     dE             d eps       ncg     rms          rms(c)
DAV:   1    -0.234109476019E+03    0.89359E-03   -0.31751E-01  3264   0.121E+00    0.104E-01
DAV:   2    -0.234110353969E+03   -0.87795E-03   -0.93245E-03  4528   0.255E-01    0.440E-02
DAV:   3    -0.234110358924E+03   -0.49550E-05   -0.35140E-04  5864   0.455E-02    0.319E-02
DAV:   4    -0.234110354793E+03    0.41311E-05   -0.36648E-05  5136   0.155E-02    0.138E-02
DAV:   5    -0.234110353695E+03    0.10975E-05   -0.11435E-05  4360   0.885E-03    0.383E-03
DAV:   6    -0.234110353649E+03    0.46060E-07   -0.15331E-06  2152   0.387E-03
  64 F= -.23411035E+03 E0= -.23411035E+03  d E =-.149472E-01
       N       E                     dE             d eps       ncg     rms          rms(c)
DAV:   1    -0.234106197035E+03    0.41567E-02   -0.25238E+00  3288   0.347E+00    0.270E-01
DAV:   2    -0.234113225752E+03   -0.70287E-02   -0.74278E-02  4528   0.680E-01    0.104E-01
DAV:   3    -0.234113406789E+03   -0.18104E-03   -0.36925E-03  5800   0.124E-01    0.782E-02
DAV:   4    -0.234113397758E+03    0.90315E-05   -0.24215E-04  5472   0.414E-02    0.353E-02
DAV:   5    -0.234113391793E+03    0.59647E-05   -0.71355E-05  4888   0.222E-02    0.107E-02
DAV:   6    -0.234113394380E+03   -0.25873E-05   -0.20103E-05  5024   0.959E-03    0.102E-02
DAV:   7    -0.234113394211E+03    0.16977E-06   -0.20887E-06  2520   0.443E-03
  65 F= -.23411339E+03 E0= -.23411339E+03  d E =-.304056E-02
       N       E                     dE             d eps       ncg     rms          rms(c)
DAV:   1    -0.234112315931E+03    0.10784E-02   -0.99460E-01  3288   0.218E+00    0.168E-01
DAV:   2    -0.234115001529E+03   -0.26856E-02   -0.28319E-02  4560   0.426E-01    0.651E-02
DAV:   3    -0.234115042990E+03   -0.41461E-04   -0.11641E-03  5792   0.771E-02    0.479E-02
DAV:   4    -0.234115040522E+03    0.24680E-05   -0.93811E-05  5400   0.258E-02    0.205E-02
DAV:   5    -0.234115039316E+03    0.12060E-05   -0.27253E-05  4728   0.137E-02    0.614E-03
DAV:   6    -0.234115039990E+03   -0.67396E-06   -0.56488E-06  3448   0.583E-03
  66 F= -.23411504E+03 E0= -.23411504E+03  d E =-.468634E-02
       N       E                     dE             d eps       ncg     rms          rms(c)
DAV:   1    -0.234108178695E+03    0.68606E-02   -0.39621E+00  3312   0.435E+00    0.338E-01
DAV:   2    -0.234118408513E+03   -0.10230E-01   -0.10937E-01  4520   0.833E-01    0.129E-01
DAV:   3    -0.234118782490E+03   -0.37398E-03   -0.66397E-03  5800   0.158E-01    0.986E-02
DAV:   4    -0.234118763161E+03    0.19330E-04   -0.44027E-04  5456   0.532E-02    0.452E-02
DAV:   5    -0.234118749638E+03    0.13522E-04   -0.10973E-04  4912   0.272E-02    0.137E-02
DAV:   6    -0.234118754251E+03   -0.46127E-05   -0.36160E-05  5368   0.121E-02    0.122E-02
DAV:   7    -0.234118754262E+03   -0.11223E-07   -0.42753E-06  3288   0.557E-03
  67 F= -.23411875E+03 E0= -.23411875E+03  d E =-.840061E-02
       N       E                     dE             d eps       ncg     rms          rms(c)
DAV:   1    -0.234067629511E+03    0.51125E-01   -0.15435E+01  3288   0.863E+00    0.752E-01
DAV:   2    -0.234119978560E+03   -0.52349E-01   -0.56027E-01  4504   0.169E+00    0.255E-01
DAV:   3    -0.234124485578E+03   -0.45070E-02   -0.55807E-02  5880   0.331E-01    0.211E-01
DAV:   4    -0.234124373929E+03    0.11165E-03   -0.21189E-03  5440   0.110E-01    0.112E-01
DAV:   5    -0.234124220834E+03    0.15309E-03   -0.41354E-04  4864   0.544E-02    0.497E-02
DAV:   6    -0.234124249991E+03   -0.29157E-04   -0.34967E-04  4720   0.336E-02    0.214E-02
DAV:   7    -0.234124258770E+03   -0.87794E-05   -0.10188E-04  5400   0.203E-02    0.137E-02
DAV:   8    -0.234124261996E+03   -0.32254E-05   -0.17500E-05  4136   0.109E-02    0.846E-03
DAV:   9    -0.234124261576E+03    0.41961E-06   -0.19309E-06  2240   0.444E-03
  68 F= -.23412426E+03 E0= -.23412426E+03  d E =-.139079E-01
       N       E                     dE             d eps       ncg     rms          rms(c)
DAV:   1    -0.233775945543E+03    0.34832E+00   -0.56998E+01  3304   0.168E+01    0.182E+00
DAV:   2    -0.234096871542E+03   -0.32093E+00   -0.34705E+00  4512   0.340E+00    0.550E-01
DAV:   3    -0.234125613144E+03   -0.28742E-01   -0.31972E-01  6048   0.734E-01    0.459E-01
DAV:   4    -0.234126506213E+03   -0.89307E-03   -0.26487E-02  5688   0.237E-01    0.316E-01
DAV:   5    -0.234124901113E+03    0.16051E-02   -0.17418E-03  5352   0.870E-02    0.199E-01
DAV:   6    -0.234124424645E+03    0.47647E-03   -0.29005E-03  3760   0.110E-01    0.818E-02
DAV:   7    -0.234124533266E+03   -0.10862E-03   -0.11704E-03  5360   0.658E-02    0.450E-02
DAV:   8    -0.234124535518E+03   -0.22517E-05   -0.68203E-05  5632   0.201E-02    0.327E-02
DAV:   9    -0.234124535664E+03   -0.14596E-06   -0.11437E-05  4016   0.759E-03    0.206E-02
DAV:  10    -0.234124537280E+03   -0.16161E-05   -0.75204E-06  3680   0.584E-03    0.136E-02
DAV:  11    -0.234124537064E+03    0.21534E-06   -0.31830E-06  3400   0.430E-03
  69 F= -.23412454E+03 E0= -.23412454E+03  d E =-.141834E-01
       N       E                     dE             d eps       ncg     rms          rms(c)
DAV:   1    -0.234042613086E+03    0.81924E-01   -0.20150E+01  3312   0.986E+00    0.902E-01
DAV:   2    -0.234119943811E+03   -0.77331E-01   -0.82940E-01  4432   0.194E+00    0.292E-01
DAV:   3    -0.234128398416E+03   -0.84546E-02   -0.97822E-02  5752   0.403E-01    0.256E-01
DAV:   4    -0.234128258834E+03    0.13958E-03   -0.37481E-03  5480   0.128E-01    0.145E-01
DAV:   5    -0.234127975186E+03    0.28365E-03   -0.66738E-04  4752   0.643E-02    0.657E-02
DAV:   6    -0.234128016872E+03   -0.41686E-04   -0.55375E-04  4968   0.398E-02    0.263E-02
DAV:   7    -0.234128030166E+03   -0.13293E-04   -0.13368E-04  5664   0.251E-02    0.155E-02
DAV:   8    -0.234128033900E+03   -0.37345E-05   -0.15754E-05  4344   0.107E-02    0.800E-03
DAV:   9    -0.234128034136E+03   -0.23627E-06   -0.19745E-06  2192   0.433E-03
  70 F= -.23412803E+03 E0= -.23412803E+03  d E =-.176805E-01
       N       E                     dE             d eps       ncg     rms          rms(c)
DAV:   1    -0.234115535165E+03    0.12499E-01   -0.52235E+00  3376   0.497E+00    0.394E-01
DAV:   2    -0.234126972761E+03   -0.11438E-01   -0.12496E-01  4560   0.911E-01    0.149E-01
DAV:   3    -0.234127467307E+03   -0.49455E-03   -0.87489E-03  5832   0.187E-01    0.119E-01
DAV:   4    -0.234127427558E+03    0.39748E-04   -0.54757E-04  5456   0.614E-02    0.573E-02
DAV:   5    -0.234127403203E+03    0.24355E-04   -0.17529E-04  4912   0.317E-02    0.178E-02
DAV:   6    -0.234127410519E+03   -0.73157E-05   -0.61267E-05  5296   0.147E-02    0.131E-02
DAV:   7    -0.234127410791E+03   -0.27179E-06   -0.74054E-06  4112   0.680E-03
  71 F= -.23412741E+03 E0= -.23412741E+03  d E =-.170571E-01
       N       E                     dE             d eps       ncg     rms          rms(c)
DAV:   1    -0.234123795913E+03    0.36146E-02   -0.16760E+00  3312   0.282E+00    0.230E-01
DAV:   2    -0.234128394651E+03   -0.45987E-02   -0.48667E-02  4504   0.545E-01    0.857E-02
DAV:   3    -0.234128520970E+03   -0.12632E-03   -0.25105E-03  5728   0.102E-01    0.637E-02
DAV:   4    -0.234128517125E+03    0.38450E-05   -0.17461E-04  5432   0.339E-02    0.277E-02
DAV:   5    -0.234128516497E+03    0.62774E-06   -0.44857E-05  4904   0.173E-02    0.800E-03
DAV:   6    -0.234128518521E+03   -0.20239E-05   -0.12061E-05  4856   0.727E-03    0.838E-03
DAV:   7    -0.234128518679E+03   -0.15813E-06   -0.10585E-06  2064   0.385E-03
  72 F= -.23412852E+03 E0= -.23412852E+03  d E =-.181650E-01
       N       E                     dE             d eps       ncg     rms          rms(c)
DAV:   1    -0.234126533195E+03    0.19853E-02   -0.17607E+00  3272   0.252E+00    0.221E-01
DAV:   2    -0.234130509901E+03   -0.39767E-02   -0.41348E-02  4568   0.463E-01    0.807E-02
DAV:   3    -0.234130620246E+03   -0.11034E-03   -0.20436E-03  5960   0.850E-02    0.569E-02
DAV:   4    -0.234130626415E+03   -0.61698E-05   -0.14132E-04  5360   0.299E-02    0.234E-02
DAV:   5    -0.234130628457E+03   -0.20416E-05   -0.32876E-05  4696   0.144E-02    0.636E-03
DAV:   6    -0.234130629970E+03   -0.15134E-05   -0.71363E-06  3760   0.605E-03    0.624E-03
DAV:   7    -0.234130630106E+03   -0.13590E-06   -0.85241E-07  2152   0.339E-03
  73 F= -.23413063E+03 E0= -.23413063E+03  d E =-.211143E-02
       N       E                     dE             d eps       ncg     rms          rms(c)
DAV:   1    -0.234128760669E+03    0.18693E-02   -0.15169E+00  3272   0.233E+00    0.205E-01
DAV:   2    -0.234132170899E+03   -0.34102E-02   -0.35429E-02  4576   0.432E-01    0.754E-02
DAV:   3    -0.234132255511E+03   -0.84611E-04   -0.16731E-03  5968   0.783E-02    0.528E-02
DAV:   4    -0.234132261372E+03   -0.58607E-05   -0.12223E-04  5360   0.280E-02    0.214E-02
DAV:   5    -0.234132263487E+03   -0.21151E-05   -0.28465E-05  4712   0.134E-02    0.589E-03
DAV:   6    -0.234132264790E+03   -0.13031E-05   -0.57503E-06  3480   0.560E-03    0.560E-03
DAV:   7    -0.234132264933E+03   -0.14360E-06   -0.75925E-07  2136   0.341E-03
  74 F= -.23413226E+03 E0= -.23413226E+03  d E =-.374625E-02
       N       E                     dE             d eps       ncg     rms          rms(c)
DAV:   1    -0.234124413629E+03    0.78512E-02   -0.60403E+00  3328   0.464E+00    0.403E-01
DAV:   2    -0.234135411165E+03   -0.10998E-01   -0.11877E-01  4592   0.812E-01    0.149E-01
DAV:   3    -0.234136116730E+03   -0.70557E-03   -0.10185E-02  5928   0.162E-01    0.117E-01
DAV:   4    -0.234136101799E+03    0.14931E-04   -0.63954E-04  5480   0.574E-02    0.545E-02
DAV:   5    -0.234136082436E+03    0.19363E-04   -0.10203E-04  4992   0.285E-02    0.172E-02
DAV:   6    -0.234136090430E+03   -0.79938E-05   -0.63914E-05  4944   0.133E-02    0.107E-02
DAV:   7    -0.234136091971E+03   -0.15403E-05   -0.14281E-05  4144   0.739E-03    0.641E-03
DAV:   8    -0.234136092546E+03   -0.57548E-06   -0.12411E-06  2192   0.385E-03
  75 F= -.23413609E+03 E0= -.23413609E+03  d E =-.757387E-02
       N       E                     dE             d eps       ncg     rms          rms(c)
DAV:   1    -0.234058114614E+03    0.77977E-01   -0.23061E+01  3264   0.911E+00    0.981E-01
DAV:   2    -0.234136566786E+03   -0.78452E-01   -0.83726E-01  4600   0.173E+00    0.300E-01
DAV:   3    -0.234146952460E+03   -0.10386E-01   -0.11471E-01  6040   0.352E-01    0.253E-01
DAV:   4    -0.234146913213E+03    0.39247E-04   -0.42308E-03  5512   0.127E-01    0.144E-01
DAV:   5    -0.234146642914E+03    0.27030E-03   -0.61773E-04  4976   0.546E-02    0.752E-02
DAV:   6    -0.234146661857E+03   -0.18944E-04   -0.44055E-04  4176   0.386E-02    0.277E-02
DAV:   7    -0.234146683063E+03   -0.21206E-04   -0.14354E-04  5520   0.247E-02    0.143E-02
DAV:   8    -0.234146685739E+03   -0.26754E-05   -0.17806E-05  4288   0.997E-03    0.792E-03
DAV:   9    -0.234146685957E+03   -0.21844E-06   -0.26345E-06  2480   0.371E-03
  76 F= -.23414669E+03 E0= -.23414669E+03  d E =-.181673E-01
       N       E                     dE             d eps       ncg     rms          rms(c)
DAV:   1    -0.233559996045E+03    0.58669E+00   -0.81283E+01  3288   0.172E+01    0.243E+00
DAV:   2    -0.234084385348E+03   -0.52439E+00   -0.56891E+00  4736   0.357E+00    0.711E-01
DAV:   3    -0.234161895889E+03   -0.77511E-01   -0.79391E-01  6192   0.805E-01    0.563E-01
DAV:   4    -0.234165517454E+03   -0.36216E-02   -0.65114E-02  5688   0.293E-01    0.407E-01
DAV:   5    -0.234162859155E+03    0.26583E-02   -0.40318E-03  5464   0.102E-01    0.274E-01
DAV:   6    -0.234161592006E+03    0.12671E-02   -0.51277E-03  3712   0.141E-01    0.117E-01
DAV:   7    -0.234161690981E+03   -0.98975E-04   -0.20054E-03  5704   0.828E-02    0.681E-02
DAV:   8    -0.234161682500E+03    0.84808E-05   -0.31357E-04  5048   0.250E-02    0.436E-02
DAV:   9    -0.234161688184E+03   -0.56841E-05   -0.49037E-05  4024   0.120E-02    0.247E-02
DAV:  10    -0.234161692957E+03   -0.47727E-05   -0.24240E-05  4968   0.767E-03    0.189E-02
DAV:  11    -0.234161691440E+03    0.15163E-05   -0.31927E-06  2976   0.470E-03    0.122E-02
DAV:  12    -0.234161691840E+03   -0.39965E-06   -0.12773E-06  2136   0.361E-03
  77 F= -.23416169E+03 E0= -.23416169E+03  d E =-.331732E-01
       N       E                     dE             d eps       ncg     rms          rms(c)
DAV:   1    -0.231374992578E+03    0.27867E+01   -0.24173E+02  3376   0.296E+01    0.517E+00
DAV:   2    -0.233282635599E+03   -0.19076E+01   -0.21773E+01  5344   0.711E+00    0.185E+00
DAV:   3    -0.234097675572E+03   -0.81504E+00   -0.83054E+00  6336   0.204E+00    0.114E+00
DAV:   4    -0.234190930717E+03   -0.93255E-01   -0.11163E+00  5952   0.952E-01    0.951E-01
DAV:   5    -0.234178811848E+03    0.12119E-01   -0.92690E-02  4888   0.264E-01    0.749E-01
DAV:   6    -0.234164347172E+03    0.14465E-01   -0.43615E-02  4824   0.349E-01    0.410E-01
DAV:   7    -0.234165847158E+03   -0.15000E-02   -0.17307E-02  5328   0.204E-01    0.351E-01
DAV:   8    -0.234165780857E+03    0.66301E-04   -0.11935E-03  6152   0.664E-02    0.353E-01
DAV:   9    -0.234165986476E+03   -0.20562E-03   -0.93386E-05  5232   0.210E-02    0.359E-01
DAV:  10    -0.234169373450E+03   -0.33870E-02   -0.10796E-03  4312   0.490E-02    0.534E-01
DAV:  11    -0.234165632625E+03    0.37408E-02   -0.22376E-02  4200   0.220E-01    0.587E-01
DAV:  12    -0.234164016953E+03    0.16157E-02   -0.21857E-03  4664   0.115E-01    0.380E-01
DAV:  13    -0.234164033240E+03   -0.16287E-04   -0.28050E-04  4680   0.277E-02    0.376E-01
DAV:  14    -0.234163974798E+03    0.58442E-04   -0.21236E-05  4512   0.935E-03    0.359E-01
DAV:  15    -0.234164079947E+03   -0.10515E-03   -0.21580E-05  3616   0.114E-02    0.330E-01
DAV:  16    -0.234163649728E+03    0.43022E-03   -0.19069E-04  3728   0.324E-02    0.197E-01
DAV:  17    -0.234163535221E+03    0.11451E-03   -0.12839E-04  4600   0.199E-02    0.161E-01
DAV:  18    -0.234163474550E+03    0.60671E-04   -0.29660E-05  5336   0.765E-03    0.146E-01
DAV:  19    -0.234163430821E+03    0.43729E-04   -0.63050E-06  2968   0.534E-03    0.135E-01
DAV:  20    -0.234163352406E+03    0.78415E-04   -0.20010E-05  3544   0.848E-03    0.113E-01
DAV:  21    -0.234163229088E+03    0.12332E-03   -0.11688E-04  3864   0.198E-02    0.408E-02
DAV:  22    -0.234163218393E+03    0.10694E-04   -0.54641E-05  5168   0.130E-02    0.137E-02
DAV:  23    -0.234163219204E+03   -0.81088E-06   -0.11616E-05  4984   0.682E-03    0.123E-02
DAV:  24    -0.234163216526E+03    0.26782E-05   -0.43771E-06  2296   0.402E-03    0.146E-02
DAV:  25    -0.234163217127E+03   -0.60064E-06   -0.26576E-06  2616   0.345E-03
  78 F= -.23416322E+03 E0= -.23416322E+03  d E =-.346984E-01
       N       E                     dE             d eps       ncg     rms          rms(c)
DAV:   1    -0.233410097014E+03    0.75312E+00   -0.91671E+01  3272   0.177E+01    0.264E+00
DAV:   2    -0.234082032165E+03   -0.67194E+00   -0.72971E+00  4624   0.390E+00    0.780E-01
DAV:   3    -0.234168885693E+03   -0.86854E-01   -0.89396E-01  6064   0.880E-01    0.658E-01
DAV:   4    -0.234173891737E+03   -0.50060E-02   -0.82666E-02  5776   0.303E-01    0.490E-01
DAV:   5    -0.234170169071E+03    0.37227E-02   -0.50636E-03  5376   0.115E-01    0.331E-01
DAV:   6    -0.234168514321E+03    0.16547E-02   -0.63288E-03  3704   0.155E-01    0.137E-01
DAV:   7    -0.234168663511E+03   -0.14919E-03   -0.29165E-03  5608   0.952E-02    0.691E-02
DAV:   8    -0.234168640928E+03    0.22583E-04   -0.11618E-04  5592   0.249E-02    0.470E-02
DAV:   9    -0.234168627038E+03    0.13890E-04   -0.37172E-05  3768   0.117E-02    0.219E-02
DAV:  10    -0.234168631754E+03   -0.47154E-05   -0.35151E-05  4680   0.939E-03    0.194E-02
DAV:  11    -0.234168629577E+03    0.21765E-05   -0.68035E-06  4040   0.609E-03    0.979E-03
DAV:  12    -0.234168629706E+03   -0.12860E-06   -0.76982E-07  2144   0.291E-03
  79 F= -.23416863E+03 E0= -.23416863E+03  d E =-.401110E-01
       N       E                     dE             d eps       ncg     rms          rms(c)
DAV:   1    -0.234028413345E+03    0.14022E+00   -0.32752E+01  3328   0.122E+01    0.134E+00
DAV:   2    -0.234176384733E+03   -0.14797E+00   -0.16238E+00  4432   0.242E+00    0.411E-01
DAV:   3    -0.234195552441E+03   -0.19168E-01   -0.21427E-01  5992   0.542E-01    0.331E-01
DAV:   4    -0.234195379771E+03    0.17267E-03   -0.84730E-03  5424   0.173E-01    0.195E-01
DAV:   5    -0.234194845397E+03    0.53437E-03   -0.11769E-03  5216   0.730E-02    0.895E-02
DAV:   6    -0.234194839856E+03    0.55406E-05   -0.63055E-04  4408   0.516E-02    0.337E-02
DAV:   7    -0.234194883820E+03   -0.43963E-04   -0.29310E-04  5824   0.315E-02    0.238E-02
DAV:   8    -0.234194886610E+03   -0.27903E-05   -0.20129E-05  4568   0.119E-02    0.163E-02
DAV:   9    -0.234194886388E+03    0.22134E-06   -0.14625E-06  2432   0.394E-03
  80 F= -.23419489E+03 E0= -.23419489E+03  d E =-.262567E-01
       N       E                     dE             d eps       ncg     rms          rms(c)
DAV:   1    -0.234113116369E+03    0.81770E-01   -0.21814E+01  3320   0.983E+00    0.103E+00
DAV:   2    -0.234198199597E+03   -0.85083E-01   -0.93191E-01  4400   0.196E+00    0.343E-01
DAV:   3    -0.234207368435E+03   -0.91688E-02   -0.10876E-01  5912   0.432E-01    0.258E-01
DAV:   4    -0.234207236260E+03    0.13217E-03   -0.43239E-03  5392   0.138E-01    0.143E-01
DAV:   5    -0.234207018773E+03    0.21749E-03   -0.75127E-04  5088   0.612E-02    0.556E-02
DAV:   6    -0.234207052351E+03   -0.33577E-04   -0.33901E-04  5008   0.355E-02    0.240E-02
DAV:   7    -0.234207072399E+03   -0.20049E-04   -0.11035E-04  5632   0.228E-02    0.150E-02
DAV:   8    -0.234207073818E+03   -0.14191E-05   -0.13382E-05  4400   0.962E-03    0.912E-03
DAV:   9    -0.234207073725E+03    0.93645E-07   -0.12118E-06  2352   0.350E-03
  81 F= -.23420707E+03 E0= -.23420707E+03  d E =-.384440E-01
       N       E                     dE             d eps       ncg     rms          rms(c)
DAV:   1    -0.233573184739E+03    0.63389E+00   -0.77135E+01  3328   0.188E+01    0.253E+00
DAV:   2    -0.234144319697E+03   -0.57113E+00   -0.62795E+00  4488   0.403E+00    0.735E-01
DAV:   3    -0.234210861585E+03   -0.66542E-01   -0.69994E-01  6080   0.960E-01    0.566E-01
DAV:   4    -0.234213752501E+03   -0.28909E-02   -0.62555E-02  5384   0.300E-01    0.395E-01
DAV:   5    -0.234211037097E+03    0.27154E-02   -0.41613E-03  5296   0.115E-01    0.226E-01
DAV:   6    -0.234210173860E+03    0.86324E-03   -0.39061E-03  4064   0.129E-01    0.871E-02
DAV:   7    -0.234210325533E+03   -0.15167E-03   -0.18930E-03  5408   0.720E-02    0.538E-02
DAV:   8    -0.234210339255E+03   -0.13723E-04   -0.13008E-04  5616   0.267E-02    0.367E-02
DAV:   9    -0.234210339589E+03   -0.33382E-06   -0.24188E-05  4376   0.121E-02    0.158E-02
DAV:  10    -0.234210342903E+03   -0.33138E-05   -0.11038E-05  3984   0.700E-03    0.100E-02
DAV:  11    -0.234210342795E+03    0.10842E-06   -0.13052E-06  2208   0.399E-03
  82 F= -.23421034E+03 E0= -.23421034E+03  d E =-.417131E-01
       N       E                     dE             d eps       ncg     rms          rms(c)
DAV:   1    -0.234108600308E+03    0.10174E+00   -0.21550E+01  3328   0.977E+00    0.995E-01
DAV:   2    -0.234206637067E+03   -0.98037E-01   -0.10668E+00  4328   0.198E+00    0.326E-01
DAV:   3    -0.234213681802E+03   -0.70447E-02   -0.85061E-02  5744   0.460E-01    0.277E-01
DAV:   4    -0.234213526818E+03    0.15498E-03   -0.60884E-03  5376   0.138E-01    0.154E-01
DAV:   5    -0.234213238565E+03    0.28825E-03   -0.71882E-04  5256   0.628E-02    0.562E-02
DAV:   6    -0.234213253185E+03   -0.14620E-04   -0.36569E-04  5752   0.344E-02    0.227E-02
DAV:   7    -0.234213261084E+03   -0.78984E-05   -0.57676E-05  5744   0.175E-02    0.164E-02
DAV:   8    -0.234213261342E+03   -0.25802E-06   -0.46052E-06  3328   0.601E-03
  83 F= -.23421326E+03 E0= -.23421326E+03  d E =-.446316E-01
       N       E                     dE             d eps       ncg     rms          rms(c)
DAV:   1    -0.234122789080E+03    0.90472E-01   -0.25974E+01  3328   0.118E+01    0.118E+00
DAV:   2    -0.234234317177E+03   -0.11153E+00   -0.12289E+00  4392   0.252E+00    0.397E-01
DAV:   3    -0.234244365305E+03   -0.10048E-01   -0.12931E-01  5816   0.544E-01    0.325E-01
DAV:   4    -0.234244077329E+03    0.28798E-03   -0.55715E-03  5616   0.171E-01    0.173E-01
DAV:   5    -0.234243705372E+03    0.37196E-03   -0.11315E-03  5120   0.813E-02    0.720E-02
DAV:   6    -0.234243748286E+03   -0.42915E-04   -0.54465E-04  5048   0.461E-02    0.296E-02
DAV:   7    -0.234243770205E+03   -0.21919E-04   -0.15757E-04  5808   0.274E-02    0.166E-02
DAV:   8    -0.234243771818E+03   -0.16122E-05   -0.19428E-05  4600   0.117E-02    0.887E-03
DAV:   9    -0.234243772045E+03   -0.22766E-06   -0.23345E-06  2928   0.430E-03
  84 F= -.23424377E+03 E0= -.23424377E+03  d E =-.305107E-01
       N       E                     dE             d eps       ncg     rms          rms(c)
DAV:   1    -0.234199249767E+03    0.44522E-01   -0.14327E+01  3328   0.864E+00    0.825E-01
DAV:   2    -0.234252383794E+03   -0.53134E-01   -0.58437E-01  4432   0.185E+00    0.301E-01
DAV:   3    -0.234255793154E+03   -0.34094E-02   -0.51102E-02  5912   0.385E-01    0.232E-01
DAV:   4    -0.234255613841E+03    0.17931E-03   -0.22949E-03  5488   0.126E-01    0.116E-01
DAV:   5    -0.234255493410E+03    0.12043E-03   -0.68198E-04  5120   0.623E-02    0.396E-02
DAV:   6    -0.234255528659E+03   -0.35249E-04   -0.27012E-04  5464   0.307E-02    0.248E-02
DAV:   7    -0.234255533643E+03   -0.49835E-05   -0.42311E-05  5480   0.153E-02    0.114E-02
DAV:   8    -0.234255535316E+03   -0.16730E-05   -0.55512E-06  3544   0.664E-03    0.457E-03
DAV:   9    -0.234255535740E+03   -0.42438E-06   -0.95249E-07  2280   0.377E-03
  85 F= -.23425554E+03 E0= -.23425554E+03  d E =-.422744E-01
       N       E                     dE             d eps       ncg     rms          rms(c)
DAV:   1    -0.233916855523E+03    0.33868E+00   -0.53682E+01  3328   0.170E+01    0.194E+00
DAV:   2    -0.234224022774E+03   -0.30717E+00   -0.33959E+00  4448   0.370E+00    0.582E-01
DAV:   3    -0.234259136047E+03   -0.35113E-01   -0.40556E-01  5928   0.829E-01    0.500E-01
DAV:   4    -0.234259044665E+03    0.91382E-04   -0.22221E-02  5520   0.265E-01    0.301E-01
DAV:   5    -0.234257522316E+03    0.15223E-02   -0.24795E-03  5296   0.116E-01    0.154E-01
DAV:   6    -0.234257358343E+03    0.16397E-03   -0.19344E-03  4504   0.900E-02    0.545E-02
DAV:   7    -0.234257451286E+03   -0.92944E-04   -0.80273E-04  5592   0.504E-02    0.370E-02
DAV:   8    -0.234257458214E+03   -0.69271E-05   -0.49297E-05  4960   0.187E-02    0.235E-02
DAV:   9    -0.234257458642E+03   -0.42816E-06   -0.83625E-06  4208   0.707E-03
  86 F= -.23425746E+03 E0= -.23425746E+03  d E =-.441973E-01
       N       E                     dE             d eps       ncg     rms          rms(c)
DAV:   1    -0.234209895042E+03    0.47563E-01   -0.12124E+01  3328   0.792E+00    0.762E-01
DAV:   2    -0.234257347000E+03   -0.47452E-01   -0.51906E-01  4280   0.171E+00    0.274E-01
DAV:   3    -0.234260664900E+03   -0.33179E-02   -0.46799E-02  5776   0.375E-01    0.220E-01
DAV:   4    -0.234260412975E+03    0.25193E-03   -0.22907E-03  5320   0.119E-01    0.105E-01
DAV:   5    -0.234260319187E+03    0.93788E-04   -0.57528E-04  5088   0.596E-02    0.305E-02
DAV:   6    -0.234260338061E+03   -0.18874E-04   -0.14787E-04  5648   0.246E-02    0.256E-02
DAV:   7    -0.234260338858E+03   -0.79656E-06   -0.16742E-05  5032   0.105E-02    0.111E-02
DAV:   8    -0.234260338301E+03    0.55635E-06   -0.17764E-06  2304   0.489E-03
  87 F= -.23426034E+03 E0= -.23426034E+03  d E =-.470770E-01
       N       E                     dE             d eps       ncg     rms          rms(c)
DAV:   1    -0.234180650087E+03    0.79689E-01   -0.19282E+01  3328   0.121E+01    0.123E+00
DAV:   2    -0.234281198905E+03   -0.10055E+00   -0.11335E+00  4392   0.295E+00    0.477E-01
DAV:   3    -0.234286273865E+03   -0.50750E-02   -0.96216E-02  5896   0.611E-01    0.372E-01
DAV:   4    -0.234285698523E+03    0.57534E-03   -0.55905E-03  5464   0.187E-01    0.186E-01
DAV:   5    -0.234285231946E+03    0.46658E-03   -0.19289E-03  4792   0.115E-01    0.671E-02
DAV:   6    -0.234285301256E+03   -0.69310E-04   -0.73023E-04  5344   0.526E-02    0.518E-02
DAV:   7    -0.234285295693E+03    0.55629E-05   -0.12449E-04  5144   0.257E-02    0.251E-02
DAV:   8    -0.234285297952E+03   -0.22592E-05   -0.27905E-05  4192   0.143E-02    0.852E-03
DAV:   9    -0.234285298108E+03   -0.15528E-06   -0.61032E-06  3536   0.718E-03
  88 F= -.23428530E+03 E0= -.23428530E+03  d E =-.249598E-01
       N       E                     dE             d eps       ncg     rms          rms(c)
DAV:   1    -0.234260589634E+03    0.24708E-01   -0.58076E+00  3328   0.658E+00    0.642E-01
DAV:   2    -0.234289116489E+03   -0.28527E-01   -0.32017E-01  4424   0.162E+00    0.269E-01
DAV:   3    -0.234289377834E+03   -0.26135E-03   -0.16325E-02  5792   0.318E-01    0.206E-01
DAV:   4    -0.234289157880E+03    0.21995E-03   -0.13420E-03  5504   0.992E-02    0.990E-02
[...]
 142 F= -.23444223E+03 E0= -.23444223E+03  d E =-.446957E-03
       N       E                     dE             d eps       ncg     rms          rms(c)
DAV:   1    -0.234441660761E+03    0.56527E-03   -0.67122E-02  3344   0.865E-01    0.867E-02
DAV:   2    -0.234442437725E+03   -0.77696E-03   -0.88946E-03  4008   0.205E-01    0.335E-02
DAV:   3    -0.234442456421E+03   -0.18697E-04   -0.34205E-04  5640   0.446E-02    0.255E-02
DAV:   4    -0.234442451647E+03    0.47741E-05   -0.23676E-05  4856   0.123E-02    0.120E-02
DAV:   5    -0.234442451482E+03    0.16533E-06   -0.70346E-06  3760   0.769E-03
 143 F= -.23444245E+03 E0= -.23444245E+03  d E =-.224764E-03
       N       E                     dE             d eps       ncg     rms          rms(c)
DAV:   1    -0.234436554567E+03    0.58971E-02   -0.51268E-01  3368   0.239E+00    0.231E-01
DAV:   2    -0.234442434736E+03   -0.58802E-02   -0.67088E-02  3936   0.559E-01    0.933E-02
DAV:   3    -0.234442590765E+03   -0.15603E-03   -0.26818E-03  5704   0.125E-01    0.713E-02
DAV:   4    -0.234442552132E+03    0.38632E-04   -0.18216E-04  4992   0.339E-02    0.342E-02
DAV:   5    -0.234442549616E+03    0.25161E-05   -0.61663E-05  4776   0.211E-02    0.130E-02
DAV:   6    -0.234442549869E+03   -0.25279E-06   -0.11156E-05  4576   0.827E-03    0.132E-02
DAV:   7    -0.234442549853E+03    0.16029E-07   -0.13533E-06  2152   0.325E-03
 144 F= -.23444255E+03 E0= -.23444255E+03  d E =-.323135E-03
       N       E                     dE             d eps       ncg     rms          rms(c)
DAV:   1    -0.234441521876E+03    0.10280E-02   -0.93725E-02  3376   0.102E+00    0.965E-02
DAV:   2    -0.234442601397E+03   -0.10795E-02   -0.12292E-02  4008   0.239E-01    0.401E-02
DAV:   3    -0.234442629131E+03   -0.27734E-04   -0.47628E-04  5632   0.524E-02    0.307E-02
DAV:   4    -0.234442621129E+03    0.80015E-05   -0.32861E-05  4760   0.143E-02    0.146E-02
DAV:   5    -0.234442620310E+03    0.81932E-06   -0.10827E-05  4024   0.891E-03    0.544E-03
DAV:   6    -0.234442620159E+03    0.15129E-06   -0.12810E-06  2016   0.402E-03
 145 F= -.23444262E+03 E0= -.23444262E+03  d E =-.393441E-03
       N       E                     dE             d eps       ncg     rms          rms(c)
DAV:   1    -0.234442574093E+03    0.46217E-04   -0.44131E-02  3352   0.677E-01    0.765E-02
DAV:   2    -0.234442960932E+03   -0.38684E-03   -0.44604E-03  4184   0.192E-01    0.349E-02
DAV:   3    -0.234442954588E+03    0.63448E-05   -0.13079E-04  5680   0.346E-02    0.277E-02
DAV:   4    -0.234442949167E+03    0.54201E-05   -0.16796E-05  4912   0.109E-02    0.128E-02
DAV:   5    -0.234442948639E+03    0.52872E-06   -0.65377E-06  3368   0.683E-03
 146 F= -.23444295E+03 E0= -.23444295E+03  d E =-.328480E-03
       N       E                     dE             d eps       ncg     rms          rms(c)
DAV:   1    -0.234441308542E+03    0.16406E-02   -0.23108E-01  3360   0.155E+00    0.180E-01
DAV:   2    -0.234443341847E+03   -0.20333E-02   -0.23500E-02  4192   0.439E-01    0.770E-02
DAV:   3    -0.234443309246E+03    0.32601E-04   -0.69412E-04  5664   0.795E-02    0.608E-02
DAV:   4    -0.234443282222E+03    0.27024E-04   -0.89693E-05  5192   0.255E-02    0.277E-02
DAV:   5    -0.234443277624E+03    0.45974E-05   -0.34752E-05  4616   0.151E-02    0.790E-03
DAV:   6    -0.234443279170E+03   -0.15457E-05   -0.74303E-06  3584   0.680E-03    0.914E-03
DAV:   7    -0.234443279504E+03   -0.33434E-06   -0.82548E-07  1984   0.338E-03
 147 F= -.23444328E+03 E0= -.23444328E+03  d E =-.659345E-03
       N       E                     dE             d eps       ncg     rms          rms(c)
DAV:   1    -0.234442713091E+03    0.56608E-03   -0.73459E-02  3400   0.995E-01    0.114E-01
DAV:   2    -0.234443591116E+03   -0.87803E-03   -0.99042E-03  4216   0.284E-01    0.480E-02
DAV:   3    -0.234443582267E+03    0.88490E-05   -0.27149E-04  5712   0.497E-02    0.374E-02
DAV:   4    -0.234443571256E+03    0.11011E-04   -0.31132E-05  4952   0.142E-02    0.187E-02
DAV:   5    -0.234443567984E+03    0.32721E-05   -0.15954E-05  4208   0.107E-02    0.486E-03
DAV:   6    -0.234443568137E+03   -0.15283E-06   -0.37425E-06  2672   0.538E-03
 148 F= -.23444357E+03 E0= -.23444357E+03  d E =-.288632E-03
       N       E                     dE             d eps       ncg     rms          rms(c)
DAV:   1    -0.234443170411E+03    0.39757E-03   -0.39436E-02  3408   0.730E-01    0.853E-02
DAV:   2    -0.234443639185E+03   -0.46877E-03   -0.53141E-03  4216   0.208E-01    0.340E-02
DAV:   3    -0.234443634782E+03    0.44035E-05   -0.14672E-04  5736   0.366E-02    0.265E-02
DAV:   4    -0.234443629066E+03    0.57162E-05   -0.16752E-05  4728   0.105E-02    0.129E-02
DAV:   5    -0.234443627334E+03    0.17320E-05   -0.80108E-06  3656   0.795E-03    0.342E-03
DAV:   6    -0.234443627370E+03   -0.36314E-07   -0.18160E-06  2216   0.455E-03
 149 F= -.23444363E+03 E0= -.23444363E+03  d E =-.347866E-03
       N       E                     dE             d eps       ncg     rms          rms(c)
DAV:   1    -0.234443193856E+03    0.43348E-03   -0.70684E-02  3264   0.848E-01    0.113E-01
DAV:   2    -0.234443897125E+03   -0.70327E-03   -0.79466E-03  4344   0.265E-01    0.461E-02
DAV:   3    -0.234443884987E+03    0.12138E-04   -0.19429E-04  5632   0.444E-02    0.358E-02
DAV:   4    -0.234443876191E+03    0.87962E-05   -0.27429E-05  4928   0.134E-02    0.171E-02
DAV:   5    -0.234443874508E+03    0.16829E-05   -0.12650E-05  4208   0.882E-03    0.433E-03
DAV:   6    -0.234443874797E+03   -0.28858E-06   -0.15127E-06  2120   0.395E-03
 150 F= -.23444387E+03 E0= -.23444387E+03  d E =-.247427E-03
       N       E                     dE             d eps       ncg     rms          rms(c)
DAV:   1    -0.234438690288E+03    0.51842E-02   -0.57088E-01  3264   0.241E+00    0.321E-01
DAV:   2    -0.234444318713E+03   -0.56284E-02   -0.63438E-02  4336   0.751E-01    0.134E-01
DAV:   3    -0.234444225874E+03    0.92839E-04   -0.15895E-03  5664   0.127E-01    0.104E-01
DAV:   4    -0.234444152567E+03    0.73307E-04   -0.21938E-04  5096   0.380E-02    0.498E-02
DAV:   5    -0.234444138375E+03    0.14193E-04   -0.10199E-04  4656   0.245E-02    0.123E-02
DAV:   6    -0.234444140470E+03   -0.20948E-05   -0.17643E-05  4656   0.102E-02    0.126E-02
DAV:   7    -0.234444140590E+03   -0.12057E-06   -0.10593E-06  1984   0.383E-03
 151 F= -.23444414E+03 E0= -.23444414E+03  d E =-.513220E-03
       N       E                     dE             d eps       ncg     rms          rms(c)
DAV:   1    -0.234443688540E+03    0.45193E-03   -0.80346E-02  3328   0.848E-01    0.107E-01
DAV:   2    -0.234444397118E+03   -0.70858E-03   -0.79404E-03  4248   0.253E-01    0.439E-02
DAV:   3    -0.234444391141E+03    0.59776E-05   -0.22646E-04  5672   0.445E-02    0.337E-02
DAV:   4    -0.234444383762E+03    0.73781E-05   -0.27553E-05  4976   0.138E-02    0.159E-02
DAV:   5    -0.234444382310E+03    0.14528E-05   -0.11443E-05  4392   0.861E-03    0.423E-03
DAV:   6    -0.234444382521E+03   -0.21134E-06   -0.14529E-06  2104   0.379E-03
 152 F= -.23444438E+03 E0= -.23444438E+03  d E =-.241931E-03
       N       E                     dE             d eps       ncg     rms          rms(c)
DAV:   1    -0.234439340851E+03    0.50415E-02   -0.61172E-01  3328   0.234E+00    0.293E-01
DAV:   2    -0.234444691764E+03   -0.53509E-02   -0.59969E-02  4240   0.695E-01    0.122E-01
DAV:   3    -0.234444648504E+03    0.43259E-04   -0.17124E-03  5704   0.122E-01    0.937E-02
DAV:   4    -0.234444592174E+03    0.56330E-04   -0.20775E-04  5120   0.377E-02    0.449E-02
DAV:   5    -0.234444580412E+03    0.11762E-04   -0.89474E-05  4864   0.235E-02    0.119E-02
DAV:   6    -0.234444582102E+03   -0.16901E-05   -0.15563E-05  4512   0.942E-03    0.113E-02
DAV:   7    -0.234444582175E+03   -0.72931E-07   -0.10817E-06  1984   0.366E-03
 153 F= -.23444458E+03 E0= -.23444458E+03  d E =-.441585E-03
       N       E                     dE             d eps       ncg     rms          rms(c)
DAV:   1    -0.234444194549E+03    0.38755E-03   -0.48564E-02  3328   0.657E-01    0.800E-02
DAV:   2    -0.234444616960E+03   -0.42241E-03   -0.47191E-03  4328   0.196E-01    0.357E-02
DAV:   3    -0.234444612842E+03    0.41182E-05   -0.12720E-04  5728   0.334E-02    0.274E-02
DAV:   4    -0.234444608107E+03    0.47351E-05   -0.14674E-05  4632   0.996E-03    0.135E-02
DAV:   5    -0.234444606952E+03    0.11548E-05   -0.71202E-06  3592   0.661E-03    0.356E-03
DAV:   6    -0.234444607002E+03   -0.50091E-07   -0.99328E-07  1960   0.356E-03
 154 F= -.23444461E+03 E0= -.23444461E+03  d E =-.466412E-03
       N       E                     dE             d eps       ncg     rms          rms(c)
DAV:   1    -0.234444535412E+03    0.71540E-04   -0.11011E-01  3328   0.772E-01    0.968E-02
DAV:   2    -0.234445014258E+03   -0.47885E-03   -0.53218E-03  4304   0.219E-01    0.440E-02
DAV:   3    -0.234445009368E+03    0.48904E-05   -0.18830E-04  5792   0.402E-02    0.329E-02
DAV:   4    -0.234445003345E+03    0.60229E-05   -0.23796E-05  4912   0.131E-02    0.147E-02
DAV:   5    -0.234445001516E+03    0.18292E-05   -0.86565E-06  4216   0.763E-03    0.395E-03
DAV:   6    -0.234445001288E+03    0.22772E-06   -0.13023E-06  2080   0.362E-03
 155 F= -.23444500E+03 E0= -.23444500E+03  d E =-.394286E-03
       N       E                     dE             d eps       ncg     rms          rms(c)
DAV:   1    -0.234441182688E+03    0.38188E-02   -0.98967E-01  3328   0.232E+00    0.294E-01
DAV:   2    -0.234445520224E+03   -0.43375E-02   -0.48484E-02  4320   0.660E-01    0.127E-01
DAV:   3    -0.234445491350E+03    0.28873E-04   -0.18693E-03  5896   0.122E-01    0.949E-02
DAV:   4    -0.234445444370E+03    0.46981E-04   -0.21341E-04  5312   0.395E-02    0.426E-02
DAV:   5    -0.234445431034E+03    0.13335E-04   -0.85839E-05  5176   0.232E-02    0.115E-02
DAV:   6    -0.234445431381E+03   -0.34667E-06   -0.16522E-05  4568   0.910E-03    0.122E-02
DAV:   7    -0.234445430871E+03    0.50994E-06   -0.14648E-06  2048   0.397E-03
 156 F= -.23444543E+03 E0= -.23444543E+03  d E =-.823869E-03
       N       E                     dE             d eps       ncg     rms          rms(c)
DAV:   1    -0.234444905445E+03    0.52594E-03   -0.13516E-01  3328   0.856E-01    0.106E-01
DAV:   2    -0.234445485722E+03   -0.58028E-03   -0.65031E-03  4320   0.243E-01    0.477E-02
DAV:   3    -0.234445479785E+03    0.59368E-05   -0.23326E-04  5816   0.446E-02    0.356E-02
DAV:   4    -0.234445473417E+03    0.63678E-05   -0.28785E-05  5024   0.143E-02    0.158E-02
DAV:   5    -0.234445472950E+03    0.46731E-06   -0.10424E-05  4432   0.812E-03    0.431E-03
DAV:   6    -0.234445473428E+03   -0.47797E-06   -0.13781E-06  2120   0.360E-03
 157 F= -.23444547E+03 E0= -.23444547E+03  d E =-.866426E-03
       N       E                     dE             d eps       ncg     rms          rms(c)
DAV:   1    -0.234445432996E+03    0.39954E-04   -0.14814E-02  3328   0.284E-01    0.343E-02
DAV:   2    -0.234445497464E+03   -0.64468E-04   -0.71001E-04  4296   0.806E-02    0.166E-02
DAV:   3    -0.234445496939E+03    0.52515E-06   -0.25421E-05  5720   0.148E-02    0.125E-02
DAV:   4    -0.234445495944E+03    0.99471E-06   -0.20319E-06  2448   0.469E-03
 158 F= -.23444550E+03 E0= -.23444550E+03  d E =-.888942E-03
       N       E                     dE             d eps       ncg     rms          rms(c)
DAV:   1    -0.234444475033E+03    0.10219E-02   -0.21980E-01  3328   0.133E+00    0.130E-01
DAV:   2    -0.234445780909E+03   -0.13059E-02   -0.14962E-02  4288   0.323E-01    0.543E-02
DAV:   3    -0.234445773037E+03    0.78723E-05   -0.50741E-04  5544   0.631E-02    0.419E-02
DAV:   4    -0.234445760821E+03    0.12216E-04   -0.55275E-05  5288   0.198E-02    0.195E-02
DAV:   5    -0.234445756122E+03    0.46983E-05   -0.20266E-05  4640   0.121E-02    0.697E-03
DAV:   6    -0.234445755679E+03    0.44367E-06   -0.38867E-06  3200   0.542E-03
 159 F= -.23444576E+03 E0= -.23444576E+03  d E =-.259735E-03
       N       E                     dE             d eps       ncg     rms          rms(c)
DAV:   1    -0.234445720656E+03    0.35467E-04   -0.95576E-03  3328   0.277E-01    0.256E-02
DAV:   2    -0.234445776378E+03   -0.55722E-04   -0.64258E-04  4296   0.677E-02    0.122E-02
DAV:   3    -0.234445775688E+03    0.69022E-06   -0.21117E-05  5392   0.131E-02    0.957E-03
DAV:   4    -0.234445774985E+03    0.70330E-06   -0.14829E-06  2424   0.397E-03
 160 F= -.23444577E+03 E0= -.23444577E+03  d E =-.279040E-03
       N       E                     dE             d eps       ncg     rms          rms(c)
DAV:   1    -0.234445807809E+03   -0.32121E-04   -0.19944E-02  3328   0.397E-01    0.683E-02
DAV:   2    -0.234445963970E+03   -0.15616E-03   -0.17522E-03  4520   0.139E-01    0.290E-02
DAV:   3    -0.234445958490E+03    0.54803E-05   -0.46828E-05  5608   0.241E-02    0.215E-02
DAV:   4    -0.234445955270E+03    0.32202E-05   -0.79748E-06  3784   0.713E-03    0.108E-02
DAV:   5    -0.234445954439E+03    0.83122E-06   -0.43796E-06  3008   0.546E-03
 161 F= -.23444595E+03 E0= -.23444595E+03  d E =-.179454E-03
       N       E                     dE             d eps       ncg     rms          rms(c)
DAV:   1    -0.234445890308E+03    0.64962E-04   -0.24901E-02  3328   0.445E-01    0.776E-02
DAV:   2    -0.234446084731E+03   -0.19442E-03   -0.22021E-03  4536   0.155E-01    0.307E-02
DAV:   3    -0.234446077770E+03    0.69610E-05   -0.60176E-05  5664   0.272E-02    0.230E-02
DAV:   4    -0.234446073843E+03    0.39271E-05   -0.10170E-05  4192   0.805E-03    0.112E-02
DAV:   5    -0.234446072597E+03    0.12465E-05   -0.47160E-06  3056   0.603E-03    0.302E-03
DAV:   6    -0.234446072541E+03    0.55603E-07   -0.11962E-06  2056   0.403E-03
 162 F= -.23444607E+03 E0= -.23444607E+03  d E =-.297557E-03
       N       E                     dE             d eps       ncg     rms          rms(c)
DAV:   1    -0.234445326058E+03    0.74654E-03   -0.99417E-02  3328   0.889E-01    0.154E-01
DAV:   2    -0.234446109996E+03   -0.78394E-03   -0.88637E-03  4528   0.312E-01    0.621E-02
DAV:   3    -0.234446081586E+03    0.28410E-04   -0.23535E-04  5648   0.539E-02    0.466E-02
DAV:   4    -0.234446065748E+03    0.15839E-04   -0.41084E-05  4720   0.158E-02    0.229E-02
DAV:   5    -0.234446061394E+03    0.43536E-05   -0.19432E-05  4168   0.113E-02    0.624E-03
DAV:   6    -0.234446061475E+03   -0.80519E-07   -0.57002E-06  3336   0.611E-03
 163 F= -.23444606E+03 E0= -.23444606E+03  d E =-.286490E-03
       N       E                     dE             d eps       ncg     rms          rms(c)
DAV:   1    -0.234445899060E+03    0.16233E-03   -0.28583E-02  3328   0.477E-01    0.787E-02
DAV:   2    -0.234446122851E+03   -0.22379E-03   -0.25175E-03  4544   0.167E-01    0.355E-02
DAV:   3    -0.234446114427E+03    0.84243E-05   -0.64958E-05  5616   0.286E-02    0.265E-02
DAV:   4    -0.234446109484E+03    0.49432E-05   -0.11419E-05  4104   0.830E-03    0.136E-02
DAV:   5    -0.234446108475E+03    0.10085E-05   -0.60172E-06  3320   0.607E-03    0.369E-03
DAV:   6    -0.234446108610E+03   -0.13462E-06   -0.10129E-06  2000   0.354E-03
 164 F= -.23444611E+03 E0= -.23444611E+03  d E =-.333626E-03
       N       E                     dE             d eps       ncg     rms          rms(c)
DAV:   1    -0.234445968384E+03    0.14009E-03   -0.17196E-02  3424   0.530E-01    0.630E-02
DAV:   2    -0.234446235693E+03   -0.26731E-03   -0.31194E-03  4216   0.151E-01    0.283E-02
DAV:   3    -0.234446231104E+03    0.45891E-05   -0.82494E-05  5280   0.286E-02    0.220E-02
DAV:   4    -0.234446226032E+03    0.50718E-05   -0.15362E-05  4392   0.970E-03    0.100E-02
DAV:   5    -0.234446224775E+03    0.12569E-05   -0.27586E-06  2408   0.491E-03    0.323E-03
DAV:   6    -0.234446224276E+03    0.49967E-06   -0.92037E-07  2008   0.445E-03
 165 F= -.23444622E+03 E0= -.23444622E+03  d E =-.115666E-03
       N       E                     dE             d eps       ncg     rms          rms(c)
DAV:   1    -0.234445730372E+03    0.49440E-03   -0.35707E-02  3424   0.766E-01    0.929E-02
DAV:   2    -0.234446285149E+03   -0.55478E-03   -0.65272E-03  4208   0.217E-01    0.385E-02
DAV:   3    -0.234446275881E+03    0.92674E-05   -0.17598E-04  5360   0.415E-02    0.301E-02
DAV:   4    -0.234446266475E+03    0.94065E-05   -0.29693E-05  4552   0.138E-02    0.137E-02
DAV:   5    -0.234446264292E+03    0.21825E-05   -0.66966E-06  3568   0.693E-03    0.472E-03
DAV:   6    -0.234446263487E+03    0.80479E-06   -0.10811E-06  2104   0.407E-03
 166 F= -.23444626E+03 E0= -.23444626E+03  d E =-.154877E-03
       N       E                     dE             d eps       ncg     rms          rms(c)
DAV:   1    -0.234446252837E+03    0.11455E-04   -0.91767E-04  3448   0.122E-01    0.142E-02
DAV:   2    -0.234446266150E+03   -0.13313E-04   -0.16226E-04  4288   0.359E-02    0.729E-03
DAV:   3    -0.234446265636E+03    0.51375E-06   -0.33965E-06  2808   0.655E-03
 167 F= -.23444627E+03 E0= -.23444627E+03  d E =-.157026E-03
       N       E                     dE             d eps       ncg     rms          rms(c)
DAV:   1    -0.234446164051E+03    0.10210E-03   -0.61536E-03  3432   0.320E-01    0.370E-02
DAV:   2    -0.234446258600E+03   -0.94548E-04   -0.11351E-03  4216   0.904E-02    0.160E-02
DAV:   3    -0.234446257022E+03    0.15780E-05   -0.31060E-05  5200   0.175E-02    0.127E-02
DAV:   4    -0.234446255829E+03    0.11927E-05   -0.42243E-06  3320   0.569E-03    0.614E-03
DAV:   5    -0.234446256257E+03   -0.42818E-06   -0.17598E-06  2080   0.424E-03
 168 F= -.23444626E+03 E0= -.23444626E+03  d E =-.147647E-03
       N       E                     dE             d eps       ncg     rms          rms(c)
DAV:   1    -0.234446228212E+03    0.27618E-04   -0.25494E-03  3432   0.203E-01    0.241E-02
DAV:   2    -0.234446267804E+03   -0.39593E-04   -0.45174E-04  4216   0.587E-02    0.113E-02
DAV:   3    -0.234446267174E+03    0.63017E-06   -0.11003E-05  3880   0.108E-02    0.834E-03
DAV:   4    -0.234446266342E+03    0.83218E-06   -0.44042E-06  3008   0.501E-03
 169 F= -.23444627E+03 E0= -.23444627E+03  d E =-.157732E-03
       N       E                     dE             d eps       ncg     rms          rms(c)
DAV:   1    -0.234446245054E+03    0.22120E-04   -0.67113E-03  3328   0.297E-01    0.329E-02
DAV:   2    -0.234446316660E+03   -0.71606E-04   -0.81217E-04  4216   0.842E-02    0.141E-02
DAV:   3    -0.234446315903E+03    0.75727E-06   -0.24365E-05  5608   0.155E-02    0.110E-02
DAV:   4    -0.234446314880E+03    0.10226E-05   -0.16523E-06  2280   0.445E-03    0.608E-03
DAV:   5    -0.234446314607E+03    0.27286E-06   -0.50091E-06  3304   0.550E-03
 170 F= -.23444631E+03 E0= -.23444631E+03  d E =-.482652E-04
       N       E                     dE             d eps       ncg     rms          rms(c)
DAV:   1    -0.234446136831E+03    0.17805E-03   -0.20750E-02  3344   0.522E-01    0.597E-02
DAV:   2    -0.234446359268E+03   -0.22244E-03   -0.25388E-03  4224   0.148E-01    0.237E-02
DAV:   3    -0.234446357458E+03    0.18091E-05   -0.75603E-05  5712   0.273E-02    0.186E-02
DAV:   4    -0.234446355200E+03    0.22588E-05   -0.74928E-06  4168   0.764E-03    0.902E-03
DAV:   5    -0.234446354365E+03    0.83429E-06   -0.40637E-06  2864   0.580E-03
 171 F= -.23444635E+03 E0= -.23444635E+03  d E =-.880232E-04
       N       E                     dE             d eps       ncg     rms          rms(c)
DAV:   1    -0.234446279438E+03    0.75762E-04   -0.10197E-02  3336   0.333E-01    0.470E-02
DAV:   2    -0.234446389399E+03   -0.10996E-03   -0.12783E-03  4304   0.107E-01    0.196E-02
DAV:   3    -0.234446386891E+03    0.25080E-05   -0.35871E-05  5720   0.196E-02    0.151E-02
DAV:   4    -0.234446385303E+03    0.15873E-05   -0.33662E-06  3000   0.566E-03    0.774E-03
DAV:   5    -0.234446385188E+03    0.11523E-06   -0.54603E-06  3176   0.566E-03
 172 F= -.23444639E+03 E0= -.23444639E+03  d E =-.308227E-04
