LAMMPS (7 Aug 2019)
  using 1 OpenMP thread(s) per MPI task

# Input written to comply with LAMMPS 2017-08-11 00:00:00

# Atomic Configuration
units           metal
boundary        p p p
box             tilt large
atom_style      charge
read_data       monoclinic_3x3x3.lmp
  triclinic box = (0 0 0) to (30.8409 30.9399 30.8613) with tilt (-0.0317434 -0.0977723 -0.0884718)
  4 by 5 by 4 MPI processor grid
  reading atoms ...
  1458 atoms
  read_data CPU = 0.0207679 secs
group           lithium type 1
459 atoms in group lithium
group           scandium type 2
135 atoms in group scandium
group           chloride type 3
864 atoms in group chloride
variable        T1 equal 300
variable        dt equal 0.001

# Potential Setup
pair_style      buck/coul/long 12.0
pair_coeff      * * 0.0 1.0 0.0
pair_coeff      1 1    360.530000  0.161000   0.000000 # Li Li
pair_coeff      1 3    421.040000  0.344000   0.000000 # Li Cl
pair_coeff      3 3   1227.200000  0.321000  14.530000 # Cl Cl
pair_coeff      2 3  12131.350000  0.250700   0.000000 # Sc Cl

kspace_style    pppm 1e-05

# General Setup
timestep        ${dt}
timestep        0.001

# Thermodynamic Information Output
thermo_style    custom step temp epair emol etotal press lx ly lz fmax cpu cpuremain
thermo          1000

# Intial Atom Velocity
velocity        all create ${T1} 682512 dist gaussian rot yes
velocity        all create 300 682512 dist gaussian rot yes

# Stage 0: npt_equilibriation
restart         0
fix             int all npt aniso 1.0 1.0 $(1000*dt) temp ${T1} ${T1} $(100*dt)
fix             int all npt aniso 1.0 1.0 1 temp ${T1} ${T1} $(100*dt)
fix             int all npt aniso 1.0 1.0 1 temp 300 ${T1} $(100*dt)
fix             int all npt aniso 1.0 1.0 1 temp 300 300 $(100*dt)
fix             int all npt aniso 1.0 1.0 1 temp 300 300 0.10000000000000000555
run             50000
PPPM initialization ...
  using 12-bit tables for long-range coulomb (../kspace.cpp:323)
  G vector (1/distance) = 0.271552
  grid = 30 30 30
  stencil order = 5
  estimated absolute RMS force accuracy = 0.000111037
  estimated relative force accuracy = 7.71111e-06
  using double precision MKL FFT
  3d grid and FFT values/proc = 2548 384
Neighbor list info ...
  update every 1 steps, delay 10 steps, check yes
  max neighbors/atom: 2000, page size: 100000
  master list distance cutoff = 14
  ghost atom cutoff = 14
  binsize = 7, bins = 5 5 5
  1 neighbor lists, perpetual/occasional/extra = 1 0 0
  (1) pair buck/coul/long, perpetual
      attributes: half, newton on
      pair build: half/bin/newton/tri
      stencil: half/bin/3d/newton/tri
      bin: standard
Per MPI rank memory allocation (min/avg/max) = 3.45 | 3.524 | 3.713 Mbytes
Step Temp E_pair E_mol TotEng Press Lx Ly Lz Fmax CPU CPULeft 
       0          300   -9859.8291            0   -9803.3294   -715.17441    30.840886    30.939923    30.861307    2.7005434            0            0 
    1000    299.73264   -10160.206            0   -10103.757   -2344.5425    33.586956      33.3106    33.799263    2.4870714    1.4634361     71.70837 
    2000    290.30521     -10171.6            0   -10116.927   -378.55372    33.256346    33.485259    33.461157    2.1941102     2.930479    70.331497 
    3000    307.00395   -10178.136            0   -10120.317    550.19957    33.190479    33.385144    33.454958    2.4591638    4.3584862    68.282965 
    4000    301.83551   -10180.251            0   -10123.405    521.18473    33.094414    33.388267      33.4551    3.1419036    5.7822411    66.495773 
    5000    297.34446   -10181.942            0   -10125.942    683.64542    33.209513    33.238713    33.538514    2.5044795    7.2454472    65.209033 
    6000     301.6296   -10182.491            0   -10125.684   -440.30843     33.02139    33.442734    33.482638    2.5545312    8.7185071    63.935725 
    7000    282.07374   -10185.383            0   -10132.259   -336.04013    33.104533    33.600696    33.386001    3.3037383    10.118696    62.157711 
    8000    298.60354   -10183.792            0   -10127.555   -710.55582    32.971716    33.705589    33.344833    2.4609483      11.4856    60.299405 
    9000    302.00578   -10184.732            0   -10127.855   -952.02729    33.367845    33.498434    33.457197    2.6066217    12.866615    58.614584 
   10000    301.91197   -10183.156            0   -10126.296      747.513     33.06231     33.42928    33.614312     2.659966    14.240565    56.962264 
   11000    291.70015   -10184.809            0   -10129.873    93.767681    33.128683    33.555351    33.392707    2.6298423    15.676564    55.580549 
   12000    289.06966   -10187.191            0    -10132.75    842.94703    33.117613    33.355517    33.635298    2.2215663    17.109107    54.178842 
   13000    311.64444   -10186.696            0   -10128.003   -95.628526      33.2659    33.284652    33.563334    2.3672311    18.501349    52.657689 
   14000    291.82861   -10185.829            0   -10130.869   -785.85878    33.343989    33.503766    33.603947    2.0168595    19.883809    51.129797 
   15000    313.15138   -10187.898            0   -10128.921    448.65645    33.082053    33.616772    33.482786     2.204316    21.283958    49.662571 
   16000    298.75757   -10189.046            0    -10132.78    13.624437    33.075718    33.544123    33.571883    2.7697529    22.647236    48.125377 
   17000    289.62682   -10187.074            0   -10132.528   -745.91167    33.240247     33.63492    33.402792    2.4746476    24.001664    46.591468 
   18000    311.58576   -10185.893            0   -10127.211   -1375.6375     33.44721    33.482317    33.558033    2.5765751    25.365697    45.094574 
   19000    293.76621   -10188.144            0   -10132.818     311.3175    33.133392    33.618523    33.478916    2.1853141    26.747141    43.640074 
   20000    311.02296   -10187.143            0   -10128.567    65.620216    33.168477    33.318192     33.58287    2.2757072    28.102642    42.153965 
   21000    301.85242   -10187.333            0   -10130.484    344.83284    33.085264     33.50267    33.372307    2.2329007    29.444632    40.661636 
   22000    295.58935   -10189.713            0   -10134.044   -502.40873    33.310614    33.514497    33.275588     2.094292    30.746596    39.132033 
   23000    308.15176   -10188.906            0   -10130.871    332.67787     33.23568    33.550205    33.454148    2.3933563    32.234934    37.841011 
   24000    292.33374   -10192.185            0   -10137.129    163.72673    33.133341    33.652536    33.307997    2.8854783     33.70021    36.508562 
   25000    300.67223   -10190.117            0   -10133.491     69.70068    33.363437    33.612082    33.399367    2.5803852    35.230519     35.23052 
   26000    306.22997   -10188.922            0   -10131.249     946.7878    33.413492    33.250035    33.403465     2.072174    36.792794     33.96258 
   27000    294.06013   -10189.606            0   -10134.225    890.94252    33.249143    33.550259    33.358184    2.6377996    38.271986    32.602063 
   28000    301.75329   -10188.496            0   -10131.666    -1146.023    33.345278    33.560552    33.493294    2.7128671    39.774204    31.251161 
   29000    297.09058    -10189.21            0   -10133.259   -188.89705    33.248613    33.484632    33.419834    2.3122087     41.17835    29.818806 
   30000     302.1617   -10189.515            0   -10132.608    517.13062    33.327374    33.389166    33.475087    2.3366053    42.629406    28.419605 
   31000    310.79412   -10190.749            0   -10132.216    891.75284    33.400312    33.084736     33.47618     2.697418    43.933417    26.926934 
   32000    297.86717   -10191.912            0   -10135.814   -486.75862    33.362936    33.413991    33.468355    2.6488525    45.345913    25.507077 
   33000    305.54412   -10191.924            0    -10134.38    44.979696    33.357417    33.398965     33.50604    2.4992824    46.703261    24.059256 
   34000    295.26952   -10192.815            0   -10137.206    205.04447    33.198676     33.28954    33.483788    2.2453504    48.082543    22.627079 
   35000    311.19696   -10191.165            0   -10132.556    328.50669    33.357756    33.294991    33.360231    2.5858668     49.53524    21.229389 
   36000     306.5397     -10191.5            0   -10133.768   -147.87946    33.265959    33.333885    33.411301    2.6875634    50.904423    19.796165 
   37000    295.21067   -10191.372            0   -10135.774    588.79944    33.136203    33.416317    33.432615    2.3551288    52.199661    18.340422 
   38000    302.35512     -10190.8            0   -10133.857    94.073791    33.162429    33.479959     33.45128    2.6784907    53.560303     16.91378 
   39000    292.93595   -10191.309            0    -10136.14    404.60002    33.193148    33.448712     33.48891    2.6452429     54.95025    15.498789 
   40000    303.81756   -10191.395            0   -10134.176    721.29201    33.185901      33.3253    33.420394    2.5259278    56.303731    14.075933 
   41000    303.11422   -10193.372            0   -10136.286     95.11801    33.268647    33.351422     33.49633    3.5468689    57.654696    12.655909 
   42000     302.0685   -10190.934            0   -10134.045   -75.080998    33.227765    33.296798    33.612555    2.0472749    59.023006    11.242478 
   43000    311.82921   -10192.487            0   -10133.759    204.62262    33.341784     33.47875    33.423681     2.380113     60.41225    9.8345525 
   44000    294.61426    -10191.44            0   -10135.955   -1024.8381    33.304075    33.481547    33.392388    2.4854044    61.812935    8.4290367 
   45000    320.40454   -10192.814            0   -10132.472    233.59407    33.277819     33.41798    33.430422    2.4984344    63.195089    7.0216767 
   46000    292.74706   -10190.333            0     -10135.2    636.72285    33.118808    33.641715    33.408394    2.8070946    64.584749    5.6160652 
   47000    281.78305   -10192.229            0    -10139.16   -438.09354    33.356852    33.523954    33.362243    2.2309197    65.999358    4.2127251 
   48000    309.72932   -10193.079            0   -10134.747    135.17837    33.332259    33.441112    33.417252    2.2432427    67.369783    2.8070743 
   49000    308.97189   -10193.378            0   -10135.189   -209.64695    33.394813    33.365799    33.423721    2.2629738    68.688389    1.4018039 
   50000    308.00492   -10192.856            0   -10134.849     161.6146    33.326621    33.462671    33.452816     2.533366    70.125601            0 
Loop time of 70.1256 on 80 procs for 50000 steps with 1458 atoms

Performance: 61.604 ns/day, 0.390 hours/ns, 713.006 timesteps/s
99.2% CPU use with 80 MPI tasks x 1 OpenMP threads

MPI task timing breakdown:
Section |  min time  |  avg time  |  max time  |%varavg| %total
---------------------------------------------------------------
Pair    | 4.9238     | 6.0154     | 6.9578     |  20.8 |  8.58
Kspace  | 36.647     | 37.762     | 38.901     |   8.6 | 53.85
Neigh   | 0.13321    | 0.15846    | 0.18386    |   3.2 |  0.23
Comm    | 20.967     | 21.317     | 21.579     |   3.4 | 30.40
Output  | 0.0025084  | 0.0025531  | 0.0037229  |   0.3 |  0.00
Modify  | 3.5517     | 4.1584     | 4.4048     |  15.6 |  5.93
Other   |            | 0.7115     |            |       |  1.01

Nlocal:    18.225 ave 24 max 12 min
Histogram: 4 6 3 7 9 25 9 8 6 3
Nghost:    1776.49 ave 1823 max 1738 min
Histogram: 5 3 15 11 15 8 7 9 5 2
Neighs:    4075.88 ave 5424 max 2711 min
Histogram: 4 6 3 12 16 13 10 10 3 3

Total # of neighbors = 326070
Ave neighs/atom = 223.642
Neighbor list builds = 899
Dangerous builds = 0

# Stage 1: nvt_equilibriation
unfix           int
restart         0
fix             int all nvt temp ${T1} ${T1} $(100*dt)
fix             int all nvt temp 300 ${T1} $(100*dt)
fix             int all nvt temp 300 300 $(100*dt)
fix             int all nvt temp 300 300 0.10000000000000000555
run             6000000
PPPM initialization ...
  using 12-bit tables for long-range coulomb (../kspace.cpp:323)
  G vector (1/distance) = 0.266482
  grid = 30 30 30
  stencil order = 5
  estimated absolute RMS force accuracy = 0.000142268
  estimated relative force accuracy = 9.87994e-06
  using double precision MKL FFT
  3d grid and FFT values/proc = 2548 384
Per MPI rank memory allocation (min/avg/max) = 3.44 | 3.68 | 3.703 Mbytes
Step Temp E_pair E_mol TotEng Press Lx Ly Lz Fmax CPU CPULeft 
   50000    308.00492   -10192.848            0   -10134.841    164.12795    33.326621    33.462671    33.452816    2.5333791            0            0 
   51000    293.87315   -10193.082            0   -10137.736   -328.94267    33.326621    33.462671    33.452816    2.3250198     1.353133    8117.4504 
   52000    294.83264   -10191.972            0   -10136.445   -181.37935    33.326621    33.462671    33.452816    2.6215539    2.7495289    8245.8371 
   53000     312.3413   -10192.465            0   -10133.641   -1304.0444    33.326621    33.462671    33.452816     2.151535    4.1697459     8335.324 
   54000    306.42962    -10192.48            0    -10134.77    -525.8314    33.326621    33.462671    33.452816    2.1492842    5.5455899    8312.8407 
   55000    295.08814   -10193.393            0   -10137.818   -80.691632    33.326621    33.462671    33.452816    2.6389225    6.9930279    8384.6405 
   56000    313.06034   -10192.221            0   -10133.262   -1770.9041    33.326621    33.462671    33.452816    2.1824439    8.3916929    8383.3012 
   57000    302.99807   -10194.936            0   -10137.871   -248.02507    33.326621    33.462671    33.452816    2.5873081    9.7117119    8314.6128 
   58000    296.93029   -10192.446            0   -10136.525   -607.93291    33.326621    33.462671    33.452816    2.1782324    11.004466    8242.3458 
   59000    304.13784   -10193.835            0   -10136.556   -837.99001    33.326621    33.462671    33.452816    2.3280044     12.23377    8143.6135 
   60000    293.78585   -10191.322            0   -10135.993     -1230.24    33.326621    33.462671    33.452816    2.8508605    13.534216    8106.9959 
   61000    298.44339   -10194.812            0   -10138.605   -307.95392    33.326621    33.462671    33.452816    2.6698715    14.825742    8071.9431 
   62000    292.69371   -10192.076            0   -10136.953   -1180.3358    33.326621    33.462671    33.452816    2.7861059     16.02984    7998.8906 
   63000    297.01579   -10193.351            0   -10137.414   -415.12297    33.326621    33.462671    33.452816    2.5257068    17.339544    7985.5274 
   64000    301.74148   -10193.973            0   -10137.145   -1552.3515    33.326621    33.462671    33.452816    2.2843654    18.574763    7942.0384 
   65000    303.28382   -10194.541            0   -10137.423    -193.5979    33.326621    33.462671    33.452816    2.5703889    19.835719    7914.4522 
   66000    308.86935   -10193.859            0   -10135.689   -1261.2813    33.326621    33.462671    33.452816     2.204348    21.088662    7887.1599 
   67000    319.15108   -10193.085            0   -10132.978   -718.96412    33.326621    33.462671    33.452816    3.1487949    22.321541    7855.8697 
   68000     297.1062   -10192.618            0   -10136.663   -571.92909    33.326621    33.462671    33.452816    2.4048765    23.565358    7831.5543 
   69000    306.84384   -10196.435            0   -10138.646   -1272.6991    33.326621    33.462671    33.452816    1.9579075    24.798771    7806.3923 
   70000    300.27182   -10194.345            0   -10137.794   -703.16235    33.326621    33.462671    33.452816    2.4627967    26.038447    7785.4959 
   71000     309.3092   -10194.781            0   -10136.528   -1156.3371    33.326621    33.462671    33.452816    1.9927448    27.299053    7772.4306 
   72000    298.59988   -10194.424            0   -10138.188   -381.27056    33.326621    33.462671    33.452816    2.2252099    28.562895    7761.3178 
   73000    299.61939     -10192.6            0   -10136.172   -1342.2191    33.326621    33.462671    33.452816    2.5203554    29.843493    7755.4158 
   74000    293.14764   -10193.652            0   -10138.443   -475.11028    33.326621    33.462671    33.452816    2.0649112    31.094842    7742.6159 
   75000    298.75635   -10192.411            0   -10136.146     -819.755    33.326621    33.462671    33.452816    2.4363043    32.286176    7716.3963 
   76000    296.98048   -10192.124            0   -10136.193   -1277.7865    33.326621    33.462671    33.452816    2.4193168    33.581635    7716.0267 
   77000    294.40867   -10193.174            0   -10137.728   -1679.1044    33.326621    33.462671    33.452816    2.5427548    34.844305    7708.3348 
   78000    297.88069   -10193.804            0   -10137.704   -678.63091    33.326621    33.462671    33.452816     2.409201    36.107597    7701.2348 
   79000    303.08647    -10195.16            0   -10138.079    -554.6815    33.326621    33.462671    33.452816    2.4898661    37.344342    7689.0714 
   80000    301.08514   -10194.004            0     -10137.3    -689.3618    33.326621    33.462671    33.452816    2.2724172    38.629414    7687.2535 
   81000    292.21185   -10195.643            0    -10140.61   -1486.0125    33.326621    33.462671    33.452816     2.310353    39.857382    7674.4748 
   82000    304.47413   -10193.019            0   -10135.677   -2544.0209    33.326621    33.462671    33.452816    2.2089851    41.198214    7683.4671 
   83000    297.34675   -10193.909            0   -10137.909   -895.32098    33.326621    33.462671    33.452816    2.5048708    42.521905    7688.7337 
   84000    299.88271    -10195.56            0   -10139.083   -589.17285    33.326621    33.462671    33.452816    2.5986328    43.869942    7697.8847 
   85000    293.67475   -10196.872            0   -10141.564   -483.14515    33.326621    33.462671    33.452816    2.7016035    45.196784    7702.8235 
   86000    294.53267   -10194.451            0   -10138.981    -752.5467    33.326621    33.462671    33.452816    2.7354199    46.609431    7721.6292 
   87000    308.52087   -10196.341            0   -10138.237   -720.44684    33.326621    33.462671    33.452816    2.3748765    47.949873    7727.7054 
   88000    288.32993   -10195.262            0    -10140.96   -859.39526    33.326621    33.462671    33.452816     2.127694    49.237864    7725.1619 
   89000    296.16834   -10196.125            0   -10140.347    251.66584    33.326621    33.462671    33.452816    2.7213428    50.563263    7728.4004 
   90000    300.81556   -10196.433            0    -10139.78   -726.14589    33.326621    33.462671    33.452816    2.1020377    51.790034    7716.7152 
   91000    304.49662   -10193.268            0   -10135.921   -1545.8327    33.326621    33.462671    33.452816    3.5526472    53.013271    7705.0265 
   92000    307.48166   -10196.983            0   -10139.074   -532.16044    33.326621    33.462671    33.452816    2.3608731    54.236912    7693.8935 
   93000    296.94476   -10198.199            0   -10142.275   -1788.2999    33.326621    33.462671    33.452816     2.547779    55.553749    7696.1323 
   94000     292.3432   -10194.357            0     -10139.3   -1190.6198    33.326621    33.462671    33.452816    2.8237089    56.843529    7694.5469 
   95000    295.09429   -10194.345            0    -10138.77   -497.06316    33.326621    33.462671    33.452816     2.833756     58.08785    7686.9589 
   96000    288.81289   -10195.028            0   -10140.636   -1225.1785    33.326621    33.462671    33.452816    2.5425765    59.373121    7684.9471 
   97000    298.86722   -10194.748            0   -10138.462   -1229.9943    33.326621    33.462671    33.452816    3.0835913    60.649717    7681.8674 
   98000    293.00831   -10198.662            0   -10143.479   -112.89668    33.326621    33.462671    33.452816    2.3709761    61.883819    7673.5937 
   99000    301.74261    -10196.13            0   -10139.302    -1013.268    33.326621    33.462671    33.452816    2.2888654    63.162885     7671.068 
  100000    283.22203   -10198.199            0   -10144.859   -1032.0048    33.326621    33.462671    33.452816    1.9666814    64.416739    7665.5921 
  101000    301.01417   -10196.871            0    -10140.18   -589.41326    33.326621    33.462671    33.452816    2.2209681    65.720773     7666.135 
  102000    284.25865   -10198.846            0   -10145.311   -1256.5032    33.326621    33.462671    33.452816    2.3838923    67.017248    7665.7422 
  103000    300.80463   -10195.358            0   -10138.707   -968.39111    33.326621    33.462671    33.452816    2.3988235    68.251218    7658.3019 
  104000    314.35029   -10197.744            0   -10138.541   -677.62653    33.326621    33.462671    33.452816    2.9929569    69.521137    7655.0497 
  105000    295.05644   -10196.879            0    -10141.31   -913.89218    33.326621    33.462671    33.452816    2.7124177    70.810915    7654.0163 
  106000    296.77584   -10197.811            0   -10141.919   -595.75683    33.326621    33.462671    33.452816    2.8905109    72.053732    7647.9891 
  107000    306.26372   -10197.537            0   -10139.858    69.707294    33.326621    33.462671    33.452816    2.3620976    73.389005    7651.7695 
  108000    304.33167   -10199.444            0   -10142.129   -148.30121    33.326621    33.462671    33.452816    2.1900773     74.65374     7648.147 
  109000    303.04212   -10194.697            0   -10137.625   -1325.0036    33.326621    33.462671    33.452816    2.5513843    75.937747    7646.5451 
  110000    300.45144   -10197.668            0   -10141.084    54.507978    33.326621    33.462671    33.452816    2.7595346    77.194978    7642.3029 
  111000    299.72496   -10195.154            0   -10138.706   -906.08184    33.326621    33.462671    33.452816    2.7495992     78.42646    7635.6517 
  112000    301.87142   -10196.952            0     -10140.1   -1328.4884    33.326621    33.462671    33.452816    2.3297119    79.677164    7631.0162 
  113000     292.3495   -10196.971            0   -10141.912   -547.46827    33.326621    33.462671    33.452816    3.0146428    81.019881    7635.1594 
  114000    303.62796   -10197.473            0    -10140.29   -1159.0209    33.326621    33.462671    33.452816    3.1472293    82.267748    7630.3337 
  115000    295.85224   -10197.377            0   -10141.659   -182.19509    33.326621    33.462671    33.452816    2.3041807    83.544683    7628.2723 
  116000    291.52514   -10199.228            0   -10144.325   -362.36424    33.326621    33.462671    33.452816    2.6216711    84.837423    7627.6556 
  117000    300.48138   -10196.587            0   -10139.997   -1028.4306    33.326621    33.462671    33.452816    2.3817704    86.124179    7626.4889 
  118000    295.55175   -10197.527            0   -10141.865    -637.1223    33.326621    33.462671    33.452816    2.6229206    87.413489    7625.5415 
  119000    301.79329   -10198.647            0    -10141.81    305.08521    33.326621    33.462671    33.452816    2.5020801     88.76078     7629.568 
  120000    311.62232   -10197.599            0   -10138.911   -428.98976    33.326621    33.462671    33.452816    2.3644905    90.081937     7631.227 
  121000    300.96125   -10198.491            0   -10141.811   -442.68363    33.326621    33.462671    33.452816    2.9782378    91.270863    7621.7599 
  122000    301.29954   -10198.515            0   -10141.771    158.50886    33.326621    33.462671    33.452816    2.5466366    92.564238    7621.1223 
  123000    300.82831   -10199.566            0    -10142.91   -371.78248    33.326621    33.462671    33.452816     2.679104    93.787498    7614.7741 
  124000    305.50699   -10196.021            0   -10138.484   -292.03304    33.326621    33.462671    33.452816    2.3883125    95.033561    7610.3904 
  125000    308.36574   -10198.172            0   -10140.097   -443.80902    33.326621    33.462671    33.452816    2.1225386    96.322415    7609.4709 
  126000    286.03806   -10196.235            0   -10142.365    372.14172    33.326621    33.462671    33.452816    2.6718248    97.577394    7605.9012 
  127000    299.45196   -10199.289            0   -10142.892   -342.10937    33.326621    33.462671    33.452816    2.4560843    98.820387    7601.4696 
  128000    306.77526   -10197.258            0   -10139.483   -68.186176    33.326621    33.462671    33.452816    2.6414334    100.06221    7597.0311 
  129000    299.15558   -10197.362            0   -10141.021    1033.1557    33.326621    33.462671    33.452816    2.1145869    101.31611    7593.5785 
  130000     307.3327   -10195.969            0   -10138.089   -92.070167    33.326621    33.462671    33.452816    2.6664471    102.52991    7587.2136 
  131000     305.1495   -10197.761            0   -10140.292   -283.65284    33.326621    33.462671    33.452816    2.2808313     103.7746     7583.233 
  132000    292.09146   -10198.142            0   -10143.132   -178.45322    33.326621    33.462671    33.452816    1.9786334    105.02887    7580.0104 
  133000    295.24472   -10199.083            0   -10143.479    278.37805    33.326621    33.462671    33.452816    2.5408704     106.2458    7574.1738 
  134000    307.10694   -10198.149            0   -10140.311   -748.01311    33.326621    33.462671    33.452816    2.3582612    107.47176    7569.0828 
  135000    294.11804   -10201.004            0   -10145.613   -1128.7633    33.326621    33.462671    33.452816    2.9639014    108.68162    7562.9621 
  136000    300.41393   -10196.958            0   -10140.381   -999.63628    33.326621    33.462671    33.452816    2.9239556    109.95511    7561.3318 
  137000    302.56841    -10199.08            0   -10142.096   -801.95584    33.326621    33.462671    33.452816    2.9677949    111.16786    7555.5815 
  138000    294.55341    -10197.21            0   -10141.737   -699.76766    33.326621    33.462671    33.452816    2.7053762    112.42953    7553.2205 
  139000    308.93076   -10196.192            0    -10138.01   -851.69249    33.326621    33.462671    33.452816    2.1703433    113.66894    7549.4057 
  140000    304.11896   -10199.911            0   -10142.635   -1254.6922    33.326621    33.462671    33.452816    2.3186942    114.92259    7546.5837 
  141000    303.59132   -10196.961            0   -10139.786   -420.86905    33.326621    33.462671    33.452816    2.2197699    116.17374    7543.6332 
  142000    304.57874   -10198.035            0   -10140.673   -1290.6827    33.326621    33.462671    33.452816    2.5259492    117.52581    7547.2009 
  143000    294.47011   -10199.446            0   -10143.987   -1322.0747    33.326621    33.462671    33.452816    1.9789867    118.70601    7539.7465 
  144000    306.79283   -10198.439            0    -10140.66   -219.66827    33.326621    33.462671    33.452816    2.2662148    119.88834    7532.5591 
  145000    299.65735    -10199.69            0   -10143.255   -728.48759    33.326621    33.462671    33.452816    2.3150607    121.10023    7527.3357 
  146000    302.90571   -10198.778            0   -10141.731   -1893.2397    33.326621    33.462671    33.452816    2.8262232    122.44039    7530.0839 
  147000    301.30364    -10201.02            0   -10144.275   -252.29606    33.326621    33.462671    33.452816    2.7339631    123.76414    7531.7496 
  148000    310.02409   -10199.402            0   -10141.014   -675.45986    33.326621    33.462671    33.452816    2.2854724     125.1003    7534.1017 
  149000    298.69355   -10201.325            0   -10145.072   -1389.3533    33.326621    33.462671    33.452816    2.4580982     126.5105    7540.7926 
  150000    299.61784   -10195.524            0   -10139.097   -934.95604    33.326621    33.462671    33.452816     2.302658     127.8624    7543.8816 
  151000    299.05933   -10199.385            0   -10143.062   -89.212553    33.326621    33.462671    33.452816    2.5548071    129.17732    7544.7227 
  152000    309.49253   -10199.158            0   -10140.871    345.74187    33.326621    33.462671    33.452816    2.2720034    130.50209    7546.0913 
  153000    294.97099   -10199.276            0   -10143.723   -61.325886    33.326621    33.462671    33.452816    2.6274664     131.7742    7544.3927 
  154000    296.22218   -10200.463            0   -10144.675   -752.69599    33.326621    33.462671    33.452816    2.5101766    133.05314    7543.0897 
  155000    315.37656   -10199.048            0   -10139.653   -173.74177    33.326621    33.462671    33.452816    2.8864102    134.25995    7537.7373 
  156000    296.09354   -10199.916            0   -10144.152   -961.09031    33.326621    33.462671    33.452816    2.9390238    135.50206    7534.4261 
  157000    298.53246     -10200.7            0   -10144.477    -760.1068    33.326621    33.462671    33.452816    2.3972081    136.74179    7531.0221 
  158000     298.9285   -10200.955            0   -10144.657   -808.81504    33.326621    33.462671    33.452816     2.425956    137.97508    7527.3073 
  159000    305.55703   -10200.777            0   -10143.231   -385.40133    33.326621    33.462671    33.452816     2.367375    139.20327    7523.3623 
  160000    312.39192    -10200.35            0   -10141.517   -404.03317    33.326621    33.462671    33.452816    2.2782367    140.48464     7522.314 
  161000    303.51753   -10201.322            0    -10144.16   -1388.4354    33.326621    33.462671    33.452816    2.3459513    141.70281    7517.9088 
  162000    285.75551    -10203.16            0   -10149.343    -826.3452    33.326621    33.462671    33.452816    2.1383452    142.90076    7512.4971 
  163000    300.47869   -10201.354            0   -10144.764   -1131.1755    33.326621    33.462671    33.452816    3.2482256    144.16912    7510.8286 
  164000    298.69152   -10200.482            0   -10144.228   -611.64228    33.326621    33.462671    33.452816    3.6157709    145.35873    7505.1006 
  165000     303.4325    -10201.41            0   -10144.264   -1304.4994    33.326621    33.462671    33.452816    2.5590458    146.63857    7504.0696 
  166000      303.182   -10201.041            0   -10143.942   -1643.6512    33.326621    33.462671    33.452816    2.3407619    147.81694    7497.8871 
  167000    291.46831   -10200.973            0    -10146.08    -998.8567    33.326621    33.462671    33.452816    2.3584437    149.05371    7494.7262 
  168000    296.33491   -10201.178            0   -10145.368   -1013.9728    33.326621    33.462671    33.452816    2.4555967    150.29277    7491.7127 
  169000    307.38427   -10201.714            0   -10143.824   -448.07722    33.326621    33.462671    33.452816     2.379586     151.4915    7486.7356 
  170000    292.48174   -10200.159            0   -10145.076   -1072.8188    33.326621    33.462671    33.452816    2.8319304    152.67846    7481.2448 
  171000    292.74463   -10200.477            0   -10145.344   -1109.2792    33.326621    33.462671    33.452816    2.3400603     153.9111    7478.0441 
  172000    294.27104   -10201.959            0   -10146.539   -1553.3671    33.326621    33.462671    33.452816    2.2805112     155.1398    7474.6866 
  173000     298.7421   -10200.132            0   -10143.869   -1158.1842    33.326621    33.462671    33.452816      2.50113    156.37515    7471.6811 
  174000    309.10791   -10205.077            0   -10146.862   -825.25762    33.326621    33.462671    33.452816    2.4470382    157.61472    7468.9039 
  175000    305.08446   -10202.067            0    -10144.61   -1458.1384    33.326621    33.462671    33.452816    2.3059435    158.84171    7465.5605 
  176000    298.96659   -10200.538            0   -10144.233   -1861.5587    33.326621    33.462671    33.452816    2.3360775    160.14452     7465.785 
  177000      299.417   -10202.561            0   -10146.172   -819.62219    33.326621    33.462671    33.452816    2.7072134    161.41591    7464.5326 
  178000    302.30975   -10201.546            0   -10144.612    -1397.019    33.326621    33.462671    33.452816    2.4257397    162.69428    7463.6003 
  179000    289.76816   -10201.391            0   -10146.818   -1512.0541    33.326621    33.462671    33.452816    2.8743873    163.98074    7463.0303 
  180000    303.08642   -10201.582            0   -10144.501   -1538.9879    33.326621    33.462671    33.452816    2.3331873    165.26482    7462.3423 
  181000    283.52375   -10202.094            0   -10148.698   -1158.4123    33.326621    33.462671    33.452816    2.0759368    166.59752    7463.8233 
  182000    298.36881   -10202.112            0    -10145.92   -1160.5823    33.326621    33.462671    33.452816    2.0101423    167.98682    7467.7777 
  183000    300.16375   -10202.016            0   -10145.485   -2040.4307    33.326621    33.462671    33.452816    2.9199261    169.30996    7468.7334 
  184000    301.32136   -10202.405            0   -10145.656   -635.31062    33.326621    33.462671    33.452816    2.3110705    170.60743    7468.5312 
  185000    300.16336   -10200.192            0   -10143.662   -1389.4575    33.326621    33.462671    33.452816    3.2970449    171.81694    7464.4917 
  186000    302.61736   -10201.492            0     -10144.5   -1138.6117    33.326621    33.462671    33.452816    3.0189916    173.07427    7462.5553 
  187000    306.40349   -10202.261            0   -10144.556   -1869.9486    33.326621    33.462671    33.452816    2.5132457    174.40284     7463.678 
  188000    297.95764   -10203.548            0   -10147.433   -262.74875    33.326621    33.462671    33.452816    2.2301168    175.62944    7460.4333 
  189000    299.13594   -10201.846            0   -10145.509   -619.37519    33.326621    33.462671    33.452816     2.526741     176.8173    7455.5844 
  190000    301.38165   -10199.798            0   -10143.038   -1115.5289    33.326621    33.462671    33.452816    3.0035817    178.03435    7452.0093 
  191000     306.6696   -10203.123            0   -10145.368   -1151.0882    33.326621    33.462671    33.452816    2.4308586     179.3244    7451.5012 
  192000    297.05335   -10202.571            0   -10146.626   -565.98117    33.326621    33.462671    33.452816    1.9806977     180.5801     7449.565 
  193000    287.74295   -10201.471            0    -10147.28   -1183.9026    33.326621    33.462671    33.452816    2.4744573        181.8    7446.1721 
  194000    304.27252   -10201.415            0   -10144.111   -619.51202    33.326621    33.462671    33.452816    2.3615149    183.04899    7443.9921 
  195000    301.14223   -10201.479            0   -10144.764   -959.82234    33.326621    33.462671    33.452816    2.8980291    184.32107    7442.7576 
  196000    309.73892   -10203.758            0   -10145.424   -1276.0428    33.326621    33.462671    33.452816    2.1491787    185.64142     7443.458 
  197000    306.07364   -10202.772            0   -10145.129   -1451.4246    33.326621    33.462671    33.452816    2.2006235    186.84285    7439.3961 
  198000    299.94327   -10205.947            0   -10149.459   -1097.2858    33.326621    33.462671    33.452816    2.1167133    188.04876    7435.5496 
  199000    295.67884   -10201.307            0   -10145.622   -1034.0254    33.326621    33.462671    33.452816    2.0074564    189.25702    7431.8311 
  200000    285.74083   -10202.833            0   -10149.019   -1369.4758    33.326621    33.462671    33.452816     2.587537     190.5259    7430.5103 
  201000    310.26272   -10202.477            0   -10144.045   -1443.8803    33.326621    33.462671    33.452816    2.7326768    191.78102    7428.6568 
  202000    294.31584   -10202.737            0   -10147.308   -1498.5186    33.326621    33.462671    33.452816    2.8596988    192.99808    7425.3471 
  203000    311.72693   -10201.652            0   -10142.944   -550.35802    33.326621    33.462671    33.452816     2.878497    194.26538     7423.985 
  204000    298.90906   -10201.403            0   -10145.109   -550.66631    33.326621    33.462671    33.452816     3.463893    195.54475    7423.0818 
  205000      300.956   -10203.703            0   -10147.024    -1010.982    33.326621    33.462671    33.452816    2.8952209    196.74257    7419.0988 
  206000    303.56916   -10200.005            0   -10142.833   -1111.8553    33.326621    33.462671    33.452816    2.1893488    198.06038    7419.6465 
  207000    299.76224   -10202.513            0   -10146.058   -684.77334    33.326621    33.462671    33.452816    2.3321166     199.2597    7415.7606 
  208000    302.53191   -10203.817            0   -10146.841   -486.70552    33.326621    33.462671    33.452816    2.1639951    200.42727    7410.7349 
  209000    287.20761   -10202.516            0   -10148.426   -1548.8459    33.326621    33.462671    33.452816    2.7785571    201.67359    7408.6506 
  210000     288.3491   -10202.495            0    -10148.19   -863.65353    33.326621    33.462671    33.452816    2.2677129    202.89344    7405.6106 
  211000    300.18824   -10202.537            0   -10146.001   -1432.3129    33.326621    33.462671    33.452816    2.2651652    204.21113    7406.1417 
  212000    315.62947   -10202.421            0   -10142.977   -1098.7698    33.326621    33.462671    33.452816    2.5209435    205.53591    7406.9053 
  213000    304.46406   -10203.624            0   -10146.284   -1454.3069    33.326621    33.462671    33.452816    2.4677242    206.92081    7409.7962 
  214000    308.64122   -10203.355            0   -10145.228   -755.04715    33.326621    33.462671    33.452816    2.6692297    208.16876    7407.7616 
  215000    310.11486   -10203.141            0   -10144.737   -1369.4306    33.326621    33.462671    33.452816     2.779614    209.47666    7407.8564 
  216000    303.60175    -10203.05            0   -10145.872   -857.18473    33.326621    33.462671    33.452816    2.3995798    210.73947    7406.3498 
  217000    294.38807   -10200.779            0   -10145.337   -1364.9541    33.326621    33.462671    33.452816    2.2637609    211.95698     7403.264 
  218000    304.57673   -10201.347            0   -10143.985   -1495.7653    33.326621    33.462671    33.452816    2.1622245    213.15148    7399.4013 
  219000    300.37129   -10203.794            0   -10147.225   -812.82901    33.326621    33.462671    33.452816    2.3992257    214.37047    7396.4155 
  220000    303.04767   -10204.171            0   -10147.097   -675.75019    33.326621    33.462671    33.452816    2.6486759     215.6274    7394.7515 
  221000    307.07818   -10204.141            0   -10146.308   -737.74047    33.326621    33.462671    33.452816    2.6558429     216.8024    7390.2994 
  222000    291.33646   -10204.491            0   -10149.623   -993.47844    33.326621    33.462671    33.452816    2.3588546     218.0179    7387.2579 
  223000    301.94782   -10203.069            0   -10146.203   -1503.3727    33.326621    33.462671    33.452816    2.4444608    219.24299    7384.5603 
  224000    295.10439    -10203.64            0   -10148.062   -1534.9449    33.326621    33.462671    33.452816    2.1237045    220.40521    7379.7744 
  225000     296.5925   -10202.651            0   -10146.793   -1241.3101    33.326621    33.462671    33.452816    2.7618447    221.62429    7376.9229 
  226000    290.77083   -10205.323            0   -10150.562   -341.67811    33.326621    33.462671    33.452816    2.3063148    222.87238    7375.0496 
  227000    302.83027   -10203.947            0   -10146.915   -1035.4747    33.326621    33.462671    33.452816    2.4227309     224.1432    7373.9314 
  228000    309.03844    -10206.28            0   -10148.078   -754.69472    33.326621    33.462671    33.452816    2.3623751    225.40991    7372.6771 
  229000    300.83686   -10205.836            0   -10149.179   -1083.9602    33.326621    33.462671    33.452816    2.5394001    226.60595    7369.1242 
  230000    313.33665   -10203.677            0   -10144.665   -270.11469    33.326621    33.462671    33.452816    2.3287235     227.8659    7367.6642 
  231000    304.16868   -10205.666            0   -10148.382   -1310.7831    33.326621    33.462671    33.452816    2.3767662    229.11348    7365.8085 
  232000    313.79517   -10203.556            0   -10144.458   -834.18242    33.326621    33.462671    33.452816    2.4405952    230.36393    7364.0513 
  233000    297.49785   -10205.101            0   -10149.073   -1460.3092    33.326621    33.462671    33.452816    2.5757258    231.71701    7365.5619 
  234000    297.86066   -10199.872            0   -10143.775   0.18692724    33.326621    33.462671    33.452816    2.8749664    233.01426    7365.2767 
  235000    293.50411   -10204.833            0   -10149.557   -1074.8896    33.326621    33.462671    33.452816    2.5559776    234.29717    7364.5301 
  236000    287.63731   -10205.658            0   -10151.487   -1697.4943    33.326621    33.462671    33.452816    2.3114793    235.49803    7361.2127 
  237000    307.83631   -10204.029            0   -10146.054   -577.90115    33.326621    33.462671    33.452816    2.3149505    236.72286     7358.663 
  238000    296.88969   -10204.338            0   -10148.424   -1511.7129    33.326621    33.462671    33.452816    2.3114736    237.98747    7357.3574 
  239000    313.55089   -10203.905            0   -10144.853   -1257.0575    33.326621    33.462671    33.452816    2.5490468    239.17506    7353.6841 
  240000    297.82962   -10205.073            0   -10148.982   -739.13728    33.326621    33.462671    33.452816    2.6207736    240.43517    7352.2545 
  241000    298.25856   -10206.938            0   -10150.766   -53.504309    33.326621    33.462671    33.452816    2.7738809    241.74784    7352.4252 
  242000    300.45142   -10205.042            0   -10148.457   -1054.4659    33.326621    33.462671    33.452816    2.4493796    243.02148    7351.3998 
  243000    307.35863   -10204.677            0   -10146.792   -1928.6279    33.326621    33.462671    33.452816    2.3987666    244.36772    7352.5562 
  244000    298.90638   -10205.053            0   -10148.759    -926.9431    33.326621    33.462671    33.452816     2.638673    245.66393    7352.1896 
  245000    304.83666   -10205.114            0   -10147.704   -360.63038    33.326621    33.462671    33.452816    2.4572096     247.0247    7353.7353 
  246000    308.13568   -10204.404            0   -10146.372    321.26996    33.326621    33.462671    33.452816    2.4905063    248.41126    7356.0152 
  247000    291.10243   -10207.998            0   -10153.174   -1070.7598    33.326621    33.462671    33.452816    2.2500402    249.75026    7356.8566 
  248000    295.48069    -10203.37            0   -10147.722   -1101.0053    33.326621    33.462671    33.452816    2.5397688    250.96002    7353.8892 
  249000    302.61178   -10203.726            0   -10146.734    -747.2766    33.326621    33.462671    33.452816    2.2701041    252.24167    7353.0348 
  250000        303.4   -10206.152            0   -10149.012   -1274.3467    33.326621    33.462671    33.452816    2.6647667    253.52737    7352.2938 
  251000    300.26304   -10204.285            0   -10147.736   -241.39973    33.326621    33.462671    33.452816    2.5160261    254.74666    7349.6314 
  252000    309.92386   -10204.167            0   -10145.798   -1065.1112    33.326621    33.462671    33.452816    2.3454154    255.94366    7346.3432 
  253000    301.42266    -10206.09            0   -10149.323   -436.11751    33.326621    33.462671    33.452816    2.3109507     257.1401      7343.06 
  254000    297.70876   -10206.922            0   -10150.854   -1555.7245    33.326621    33.462671    33.452816    1.9422106    258.36805    7340.6923 
  255000    296.46321   -10205.333            0     -10149.5   -451.00389    33.326621    33.462671    33.452816     2.495561    259.60814     7338.679 
  256000    300.94739   -10204.988            0    -10148.31   -2068.9157    33.326621    33.462671    33.452816    2.2823443    260.82843    7336.1162 
  257000    287.95392   -10205.164            0   -10150.933   -1713.3373    33.326621    33.462671    33.452816    2.5716694    262.08525    7334.5887 
  258000    306.82908   -10205.305            0   -10147.519   -1065.2978    33.326621    33.462671    33.452816    2.2109658    263.35098     7333.312 
  259000    305.21037   -10206.024            0   -10148.543   -418.46088    33.326621    33.462671    33.452816    2.1608245    264.57767    7330.9535 
  260000    299.39943   -10204.359            0   -10147.973   -1611.9714    33.326621    33.462671    33.452816    2.1509916    265.79766    7328.4211 
  261000    294.21885   -10204.096            0   -10148.685   -1082.6917    33.326621    33.462671    33.452816    3.0233304     267.0463    7326.6875 
  262000    294.28537   -10204.238            0   -10148.815    -950.7573    33.326621    33.462671    33.452816    2.0751171     268.2948    7324.9544 
  263000    302.84838   -10203.461            0   -10146.424    10.939736    33.326621    33.462671    33.452816    2.5840677    269.54296    7323.2165 
  264000    296.16699   -10205.413            0   -10149.635   -391.91817    33.326621    33.462671    33.452816    2.3093704    270.79492    7321.5862 
  265000    299.10596   -10206.389            0   -10150.058   -499.71109    33.326621    33.462671    33.452816    2.5866476     272.0146    7319.0907 
  266000    286.46305   -10204.935            0   -10150.984   -1954.2159    33.326621    33.462671    33.452816     2.012232    273.27895     7317.803 
  267000    303.14487   -10204.426            0   -10147.334   -1599.0532    33.326621    33.462671    33.452816    3.0278559    274.44541     7313.907 
  268000    302.44003   -10203.221            0   -10146.262   -792.84333    33.326621    33.462671    33.452816    2.2930069    275.63378    7310.6171 
  269000    291.13082   -10204.127            0   -10149.298   -1520.2502    33.326621    33.462671    33.452816    2.7304433    276.84554    7307.9638 
  270000    295.93805   -10204.334            0     -10148.6   -946.75577    33.326621    33.462671    33.452816    2.3223214     278.0709     7305.681 
  271000    305.23776   -10205.486            0       -10148   -1363.6666    33.326621    33.462671    33.452816    2.4752713    279.31822    7303.9819 
  272000    305.17203   -10205.063            0   -10147.589   -854.90547    33.326621    33.462671    33.452816    3.4510352    280.52167    7301.1452 
  273000    297.79163   -10206.142            0   -10150.059   -1208.8741    33.326621    33.462671    33.452816    2.5537232    281.81017    7300.5262 
  274000    310.73405   -10203.525            0   -10145.004   -474.29976    33.326621    33.462671    33.452816    2.4389198    283.00353    7297.4483 
  275000    296.28533   -10204.581            0   -10148.781   -496.90883    33.326621    33.462671    33.452816    2.5799548    284.26569    7296.1526 
  276000    304.54041    -10205.23            0   -10147.876   -435.64062    33.326621    33.462671    33.452816    2.3206466     285.5587    7295.6458 
  277000    298.83069   -10203.861            0   -10147.582   -1108.5596    33.326621    33.462671    33.452816    3.3857491    286.92362    7296.9608 
  278000    304.75933   -10204.023            0   -10146.627   -1814.7731    33.326621    33.462671    33.452816    1.9389909    288.21601    7296.4158 
  279000    299.79712   -10204.715            0   -10148.253   -685.74666    33.326621    33.462671    33.452816    2.2803524    289.52022    7296.1624 
  280000    294.96902   -10203.681            0   -10148.129   -828.77947    33.326621    33.462671    33.452816    2.4158741     290.8532    7296.6217 
  281000    298.19745   -10204.862            0   -10148.701   -1080.8035    33.326621    33.462671    33.452816    2.7600157      292.137    7295.8371 
  282000    304.69363   -10204.937            0   -10147.553   -1968.1824    33.326621    33.462671    33.452816    2.4448601    293.42855    7295.2409 
  283000     305.3535   -10206.815            0   -10149.307   -1544.9645    33.326621    33.462671    33.452816    2.0365091    294.59287    7291.4896 
  284000    309.12491   -10203.076            0   -10144.858   -1698.9769    33.326621    33.462671    33.452816    2.0967392    295.85741      7290.23 
  285000    306.01032   -10203.212            0   -10145.581    -1235.904    33.326621    33.462671    33.452816    2.4582042    297.08818    7288.1419 
  286000    290.52968    -10203.39            0   -10148.674   -1699.1938    33.326621    33.462671    33.452816    2.1845947    298.35233    7286.8763 
  287000    300.40181   -10204.446            0   -10147.871   -1116.0666    33.326621    33.462671    33.452816    2.2427099    299.53685    7283.6746 
  288000    297.00036   -10205.109            0   -10149.175   -891.78239    33.326621    33.462671    33.452816    2.3134221    300.75002    7281.1833 
  289000    305.74949   -10205.263            0   -10147.681   -444.50145    33.326621    33.462671    33.452816      2.52377    301.94099    7278.1675 
  290000     309.7205   -10203.924            0   -10145.594   -1298.1242    33.326621    33.462671    33.452816    2.8041983     303.1986    7276.7663 
  291000    301.09296    -10205.16            0   -10148.455   -565.09517    33.326621    33.462671    33.452816    2.7020324    304.45828    7275.4159 
  292000    298.61278   -10204.624            0   -10148.386   -1456.4659    33.326621    33.462671    33.452816    2.7385281    305.68568    7273.2983 
  293000    305.85993   -10205.304            0   -10147.701   -826.62805    33.326621    33.462671    33.452816    2.5793291    306.94866    7272.0305 
  294000    294.95036   -10203.653            0   -10148.104   -2078.1865    33.326621    33.462671    33.452816    2.2889608    308.14174    7269.1141 
  295000    302.08008   -10204.337            0   -10147.446   -462.09097    33.326621    33.462671    33.452816    2.4490063    309.34786    7266.5181 
  296000    299.99206    -10206.89            0   -10150.392   -243.04424    33.326621    33.462671    33.452816    2.0448778    310.58846    7264.7399 
  297000    302.04533   -10204.604            0    -10147.72   -913.04164    33.326621    33.462671    33.452816    2.6255096    311.85229    7263.5071 
  298000    302.46062   -10207.429            0   -10150.466    -2231.495    33.326621    33.462671    33.452816    3.0261654    313.12108    7262.3891 
  299000    293.03461   -10203.117            0   -10147.929   -352.61144    33.326621    33.462671    33.452816    2.1999194    314.38561    7261.1714 
  300000    301.81614   -10204.733            0   -10147.891   -56.824267    33.326621    33.462671    33.452816    2.5207207    315.63959    7259.7106 
  301000     304.8629   -10203.683            0   -10146.268   -926.87643    33.326621    33.462671    33.452816    2.8112835    316.92713    7259.0202 
  302000    286.63314   -10206.333            0   -10152.351    -1628.997    33.326621    33.462671    33.452816    2.1532328    318.14015    7256.6253 
  303000     306.3391   -10206.526            0   -10148.832   -519.23321    33.326621    33.462671    33.452816    2.3760523    319.38331    7254.9244 
  304000    301.42088   -10206.116            0   -10149.349   -2162.5572    33.326621    33.462671    33.452816    3.0185229     320.5673    7251.8887 
  305000    303.79917   -10205.287            0   -10148.072   -669.71242    33.326621    33.462671    33.452816      2.46488    321.84799    7251.0459 
  306000    291.13717   -10208.305            0   -10153.475   -1150.0881    33.326621    33.462671    33.452816    2.1969883    323.09101    7249.3545 
  307000    302.51906   -10207.033            0   -10150.059   -954.47046    33.326621    33.462671    33.452816    2.3592983    324.45663    7250.4063 
  308000    299.49645   -10203.885            0    -10147.48   -535.84748    33.326621    33.462671    33.452816    2.7576972    325.76712    7250.2124 
  309000    299.59057   -10208.287            0   -10151.864    -480.2887    33.326621    33.462671    33.452816    2.6421799    327.06937    7249.8272 
  310000    299.67719   -10204.421            0   -10147.982   -2114.3943    33.326621    33.462671    33.452816    2.3424219    328.39499    7249.9511 
  311000    304.27952   -10204.403            0   -10147.098   -548.15755    33.326621    33.462671    33.452816     2.296393    329.70387    7249.6955 
  312000     306.0997   -10206.392            0   -10148.744   -1154.4294    33.326621    33.462671    33.452816    2.2832286    331.01884    7249.5653 
  313000    299.53652   -10205.052            0   -10148.639   -986.49385    33.326621    33.462671    33.452816    2.4503422     332.2124    7246.7777 
  314000    290.65171   -10204.401            0   -10149.662   -1539.8723    33.326621    33.462671    33.452816    2.6389797    333.45603    7245.0901 
  315000    288.70834   -10204.142            0   -10149.769   -1823.8143    33.326621    33.462671    33.452816    1.8711952    334.63989    7242.1123 
  316000    289.17848   -10206.176            0   -10151.715   -932.89365    33.326621    33.462671    33.452816    2.4655219    335.91064    7241.0211 
  317000    305.82774   -10204.342            0   -10146.745   -765.26916    33.326621    33.462671    33.452816    1.8579709    337.10372    7238.2608 
  318000    298.96926   -10206.098            0   -10149.793   -1355.8329    33.326621    33.462671    33.452816    2.5400651    338.29307    7235.4324 
  319000    294.73959   -10206.298            0    -10150.79   -1238.0834    33.326621    33.462671    33.452816    2.6341211    339.53797    7233.7996 
  320000    300.87434     -10206.9            0   -10150.236   -282.64348    33.326621    33.462671    33.452816    1.9736514    340.71395    7230.7072 
  321000    292.72246   -10207.697            0   -10152.568   -857.58907    33.326621    33.462671    33.452816     2.265342    341.94125    7228.7138 
  322000    301.15346   -10206.063            0   -10149.346    -1678.165    33.326621    33.462671    33.452816    2.2714638    343.11282    7225.5523 
  323000    302.34451   -10208.198            0   -10151.256   -712.38318    33.326621    33.462671    33.452816    2.2604345    344.36218    7224.0374 
  324000    301.96929   -10206.816            0   -10149.946   -1390.6053    33.326621    33.462671    33.452816    2.5864407    345.64594    7223.2432 
  325000    302.14275   -10207.263            0    -10150.36   -1093.2758    33.326621    33.462671    33.452816     2.099805    346.89314    7221.6844 
  326000     293.3143   -10205.769            0   -10150.528   -837.93763    33.326621    33.462671    33.452816    3.2506366    348.11103      7219.52 
  327000    293.80465   -10207.503            0    -10152.17   -966.24996    33.326621    33.462671    33.452816    2.5334255    349.32937    7217.3718 
  328000    297.77595   -10205.536            0   -10149.455    -450.9983    33.326621    33.462671    33.452816    3.0575705    350.63888    7217.1069 
  329000    296.03529   -10208.135            0   -10152.382    63.897865    33.326621    33.462671    33.452816      2.58258    351.88488    7215.5319 
  330000    297.06322   -10206.046            0     -10150.1   -1621.3591    33.326621    33.462671    33.452816    2.3781069    353.12229    7213.7839 
  331000    294.80441   -10207.902            0   -10152.381   -701.38634    33.326621    33.462671    33.452816      2.45606    354.29651    7210.7536 
  332000    306.69669   -10207.676            0   -10149.915   -1295.9679    33.326621    33.462671    33.452816    2.2843529    355.54288    7209.1992 
  333000    301.48608   -10208.131            0   -10151.351    -1047.388    33.326621    33.462671    33.452816    2.6324232    356.75845     7207.025 
  334000    309.14122   -10205.174            0   -10146.952   -1348.1385    33.326621    33.462671    33.452816    2.8369326    358.00395    7205.4598 
  335000    297.11002   -10205.358            0   -10149.403   -956.34532    33.326621    33.462671    33.452816    2.5449638    359.23781    7203.6634 
  336000    294.55059   -10207.924            0   -10152.451   -972.05137    33.326621    33.462671    33.452816    2.7286683    360.43625    7201.1635 
  337000    305.14862   -10206.962            0   -10149.493   -1038.5653    33.326621    33.462671    33.452816    2.0099096    361.70087    7199.9899 
  338000     292.5025   -10207.411            0   -10152.323   -1009.1216    33.326621    33.462671    33.452816    2.5206476    362.98468    7199.1963 
  339000    297.29862   -10205.973            0   -10149.982   -1157.6241    33.326621    33.462671    33.452816    2.5705834    364.32945    7199.6038 
  340000    303.84721   -10206.507            0   -10149.283   -1259.7688    33.326621    33.462671    33.452816    2.3822803    365.58402    7198.2233 
  341000    307.29095    -10207.83            0   -10149.957   -133.56408    33.326621    33.462671    33.452816    2.2948631    366.93114    7198.6595 
  342000    306.52949   -10208.342            0   -10150.613   -1667.3895    33.326621    33.462671    33.452816    2.1943522    368.22951    7198.1302 
  343000    295.43216   -10203.868            0   -10148.228   -1533.1646    33.326621    33.462671    33.452816    2.4812942    369.57998    7198.6108 
  344000    304.99567   -10207.677            0   -10150.236   -695.53869    33.326621    33.462671    33.452816    2.5843191    370.90226    7198.5316 
  345000     295.2689   -10206.873            0   -10151.265    -1611.009    33.326621    33.462671    33.452816    2.3527586    372.18976    7197.7715 
  346000    289.81031   -10205.499            0   -10150.919   -1353.0678    33.326621    33.462671    33.452816    3.4316008    373.40647    7195.6437 
  347000    298.34917   -10207.829            0    -10151.64   -1297.5879    33.326621    33.462671    33.452816    3.1432924    374.67141     7194.448 
  348000    291.54614   -10205.173            0   -10150.266   -732.00737    33.326621    33.462671    33.452816    2.6362374    375.88514     7192.272 
  349000    285.68125   -10204.988            0   -10151.185   -1575.6178    33.326621    33.462671    33.452816     2.590732    377.10894    7190.2946 
  350000    303.67317   -10205.742            0   -10148.551   -2838.4554    33.326621    33.462671    33.452816    2.3070176    378.34008    7188.4616 
  351000    307.83666   -10206.541            0   -10148.566   -1213.7742    33.326621    33.462671    33.452816    2.1269298    379.58576    7186.9078 
  352000    304.70925   -10208.092            0   -10150.706   -1288.5656    33.326621    33.462671    33.452816    2.1956488    380.80915    7184.9356 
  353000    311.26975   -10206.798            0   -10148.176   -1593.5673    33.326621    33.462671    33.452816    2.4641886    382.02289    7182.7868 
  354000    302.29419   -10208.997            0   -10152.065   -822.11134    33.326621    33.462671    33.452816    2.2390925    383.21647    7180.2665 
  355000    296.30153   -10206.019            0   -10150.216   -1465.4886    33.326621    33.462671    33.452816    2.0379263    384.42039     7177.948 
  356000    297.45587   -10207.552            0   -10151.531   -1424.1333    33.326621    33.462671    33.452816    2.1038146    385.68773    7176.8169 
  357000     292.4297   -10208.246            0   -10153.172   -396.28836    33.326621    33.462671    33.452816    2.1489106    386.90907    7174.8317 
  358000    292.48331   -10206.644            0   -10151.561   -1186.0491    33.326621    33.462671    33.452816    2.5424495    388.10924    7172.4604 
  359000    290.22253   -10208.528            0    -10153.87   -381.71513    33.326621    33.462671    33.452816    1.9425279    389.34297    7170.7146 
  360000    298.24366   -10206.154            0   -10149.985   -444.71344    33.326621    33.462671    33.452816    2.2770049    390.58565    7169.1366 
  361000    295.63497   -10208.498            0    -10152.82   -1063.5805    33.326621    33.462671    33.452816    2.6308501    391.75949    7166.3014 
  362000    307.98919   -10207.585            0   -10149.581   -1209.8907    33.326621    33.462671    33.452816    2.2335634    392.98316    7164.3854 
  363000    292.22113   -10209.415            0    -10154.38    -446.8331    33.326621    33.462671    33.452816    2.6693971    394.18472    7162.0719 
  364000    296.64935   -10208.356            0   -10152.487   -983.50946    33.326621    33.462671    33.452816    2.3338354    395.36527    7159.3851 
  365000    310.49936   -10207.936            0   -10149.459   -819.55771    33.326621    33.462671    33.452816    2.5577871    396.57861    7157.2997 
  366000    294.51707   -10207.891            0   -10152.424   -562.77834    33.326621    33.462671    33.452816    2.3985201       397.78    7155.0048 
  367000    300.41653   -10205.891            0   -10149.313   -959.56543    33.326621    33.462671    33.452816    2.2071131    398.98831    7152.8409 
  368000    305.02879   -10207.311            0   -10149.864     -278.753    33.326621    33.462671    33.452816    2.8119433    400.27179    7152.0262 
  369000    295.58475   -10206.542            0   -10150.873   -941.47753    33.326621    33.462671    33.452816    3.0457453    401.47067    7149.7018 
  370000    295.82367   -10209.118            0   -10153.405   -186.52742    33.326621    33.462671    33.452816    2.4042705    402.71368    7148.1679 
  371000    295.73431   -10208.666            0    -10152.97   -1119.1774    33.326621    33.462671    33.452816    3.0191492    404.08393    7148.8867 
  372000    315.96108   -10207.522            0   -10148.016   -886.55292    33.326621    33.462671    33.452816    2.3413098    405.42325    7149.0474 
  373000    300.86121   -10206.831            0   -10150.169   -902.43889    33.326621    33.462671    33.452816    2.7306932    406.81502    7150.1203 
  374000    303.54008   -10207.007            0    -10149.84   -1201.9443    33.326621    33.462671    33.452816      2.36741    408.17944    7150.6991 
  375000    291.00953   -10207.099            0   -10152.292    -1154.593    33.326621    33.462671    33.452816    2.2695964    409.51016    7150.6775 
  376000    310.44165   -10207.924            0   -10149.458   -635.74573    33.326621    33.462671    33.452816    2.3721678    410.79605    7149.8675 
  377000     303.7157   -10207.273            0   -10150.074    48.908663    33.326621    33.462671    33.452816    2.3123466    412.05168    7148.5296 
  378000    290.89053   -10207.873            0   -10153.089   -549.04931    33.326621    33.462671    33.452816    2.6236452    413.26544    7146.4683 
  379000    305.45765   -10206.138            0   -10148.611   -1269.1747    33.326621    33.462671    33.452816    2.4212013    414.46984    7144.2506 
  380000    302.01283   -10204.066            0   -10147.188    -1399.296    33.326621    33.462671    33.452816    2.4263756    415.68595    7142.2404 
  381000    292.46624   -10207.785            0   -10152.704   -1157.4795    33.326621    33.462671    33.452816    2.3576516    416.88608    7139.9614 
  382000    295.28881   -10206.679            0   -10151.067   -979.97468    33.326621    33.462671    33.452816    2.4709192    418.13095    7138.4525 
  383000    298.54167   -10209.586            0   -10153.361    -1137.062    33.326621    33.462671    33.452816    2.6266495    419.38529    7137.1065 
  384000    292.33375   -10207.566            0    -10152.51   -903.77687    33.326621    33.462671    33.452816    2.3770783    420.59839    7135.0613 
  385000    295.12051   -10205.926            0   -10150.345   -2022.8322    33.326621    33.462671    33.452816    2.9274329      421.873    7134.0614 
  386000    290.92505   -10207.609            0   -10152.818   -1340.3826    33.326621    33.462671    33.452816    2.4431378    423.10611    7132.3601 
  387000    313.50252   -10204.471            0   -10145.428   -1385.2223    33.326621    33.462671    33.452816    2.6620691    424.35741    7130.9674 
  388000    287.10406   -10206.045            0   -10151.974   -721.40662    33.326621    33.462671    33.452816    2.6249628    425.56349    7128.8181 
  389000     294.9744   -10207.478            0   -10151.925   -465.55924    33.326621    33.462671    33.452816    2.1794456    426.76752      7126.64 
  390000     307.2032   -10206.442            0   -10148.585    -643.6565    33.326621    33.462671    33.452816    2.5796412    428.04964    7125.7675 
  391000    298.91367   -10207.804            0   -10151.509    -1664.191    33.326621    33.462671    33.452816    1.9890855    429.27056    7123.8772 
  392000    302.89036   -10205.004            0    -10147.96   -1748.5587    33.326621    33.462671    33.452816     2.211303    430.46592    7121.5678 
  393000    292.56043   -10206.565            0   -10151.466   -1395.2529    33.326621    33.462671    33.452816    2.5665338    431.71676      7120.18 
  394000    293.10525   -10206.174            0   -10150.973   -149.12091    33.326621    33.462671    33.452816    2.7390335    432.91806    7117.9784 
  395000    296.53118   -10206.448            0   -10150.601   -1321.7433    33.326621    33.462671    33.452816    2.1505818    434.11964    7115.7872 
  396000    298.16764   -10207.558            0   -10151.403   -1794.5202    33.326621    33.462671    33.452816    2.3203948     435.3007    7113.2663 
  397000    309.17466   -10207.371            0   -10149.143   -1002.8915    33.326621    33.462671    33.452816    2.3702528    436.56328    7112.0814 
  398000    288.53988   -10209.573            0   -10155.232   -1154.6895    33.326621    33.462671    33.452816    2.3672682    437.75548    7109.7529 
  399000    304.62456   -10205.445            0   -10148.075    -1654.923    33.326621    33.462671    33.452816    2.2965625    438.96428    7107.6996 
  400000    305.38912   -10207.082            0   -10149.567    -495.5424    33.326621    33.462671    33.452816    2.5681848    440.16597    7105.5364 
  401000     289.5361   -10205.754            0   -10151.225   -889.63409    33.326621    33.462671    33.452816    2.4064207    441.39974     7103.895 
  402000    296.12993   -10208.079            0   -10152.308   -980.49974    33.326621    33.462671    33.452816    2.3953103     442.6307    7102.2108 
  403000    301.23882   -10208.458            0   -10151.725    -1073.636    33.326621    33.462671    33.452816    2.8251647    443.89383    7101.0438 
  404000    299.09598   -10208.328            0   -10151.999   -796.74462    33.326621    33.462671    33.452816    2.1236045    445.21344    7100.7771 
  405000    297.49356   -10205.431            0   -10149.404   -1804.9415    33.326621    33.462671    33.452816     2.439623    446.53484    7100.5329 
  406000    316.74693   -10207.148            0   -10147.494   -2042.9273    33.326621    33.462671    33.452816    2.2353812    447.91123    7101.1545 
  407000    299.54785   -10209.252            0   -10152.837   -2212.8182    33.326621    33.462671    33.452816    2.3405443    449.17533    7099.9898 
  408000    298.79061   -10206.949            0   -10150.677   -1277.7872    33.326621    33.462671    33.452816    2.9413219    450.45284    7099.0361 
  409000    297.88805   -10205.966            0   -10149.864   -1153.7401    33.326621    33.462671    33.452816    2.4987291    451.61474     7096.264 
  410000    291.36495   -10208.715            0   -10153.842   -1099.1586    33.326621    33.462671    33.452816    2.8689208    452.79688    7093.8178 
  411000    305.28058   -10206.147            0   -10148.653   -615.76159    33.326621    33.462671    33.452816    2.3295275    453.99736    7091.6651 
  412000    297.58203   -10208.635            0    -10152.59   -1329.8926    33.326621    33.462671    33.452816    2.5381719    455.18702    7089.3493 
  413000    305.63588   -10208.791            0    -10151.23   -1054.8241    33.326621    33.462671    33.452816     2.612747    456.44909     7088.164 
  414000    306.87987   -10209.327            0   -10151.532   -783.98197    33.326621    33.462671    33.452816    2.2076675    457.66748     7086.302 
  415000    304.90524   -10206.542            0   -10149.118   -1104.9865    33.326621    33.462671    33.452816    2.8344418    458.89846    7084.6379 
  416000    295.58892   -10208.682            0   -10153.013   -1348.7329    33.326621    33.462671    33.452816    2.7661281    460.10629    7082.6199 
  417000    301.80646   -10207.074            0   -10150.235   -2278.4983    33.326621    33.462671    33.452816    3.1255523    461.33643    7080.9486 
  418000    298.30299    -10206.05            0    -10149.87    -491.8245    33.326621    33.462671    33.452816    2.6948886    462.59742    7079.7518 
  419000    299.74005   -10208.019            0   -10151.568   -1463.0726    33.326621    33.462671    33.452816    2.7448842    463.85221    7078.4602 
  420000    299.95663   -10207.065            0   -10150.573   -1328.5044    33.326621    33.462671    33.452816     2.678834    465.03937    7076.1396 
  421000    289.98353   -10206.237            0   -10151.624   -1695.2249    33.326621    33.462671    33.452816    2.3420834     466.2394    7074.0205 
  422000    304.62642   -10208.696            0   -10151.326   -1098.9901    33.326621    33.462671    33.452816    2.4561113    467.46125    7072.2364 
  423000    306.30206   -10207.866            0    -10150.18   -504.69004    33.326621    33.462671    33.452816    2.3944501    468.69598    7070.6496 
  424000    299.14837   -10208.943            0   -10152.604   -1555.5503    33.326621    33.462671    33.452816    2.1899913    469.94798    7069.3244 
  425000    302.83576   -10205.846            0   -10148.812   -1097.1671    33.326621    33.462671    33.452816    2.7565613    471.21302    7068.1953 
  426000    297.83879   -10207.274            0   -10151.181   -834.13243    33.326621    33.462671    33.452816    2.4786582    472.44766    7066.6107 
  427000    296.53709   -10205.158            0   -10149.311   -710.81996    33.326621    33.462671    33.452816     2.504795    473.62469    7064.1688 
  428000     298.5381   -10208.706            0   -10152.482   -879.83128    33.326621    33.462671    33.452816    2.2692231    474.86984    7062.7466 
  429000    293.58383   -10208.031            0    -10152.74   -958.42923    33.326621    33.462671    33.452816    2.8063424    476.06094    7060.5238 
  430000    295.61233   -10205.155            0   -10149.482     -1198.92    33.326621    33.462671    33.452816     2.892578    477.30279    7059.0571 
  431000     299.4545   -10205.907            0    -10149.51    -1256.322    33.326621    33.462671    33.452816    2.3346578    478.55412    7057.7313 
  432000     302.2961   -10206.677            0   -10149.745   -1440.7972    33.326621    33.462671    33.452816    2.5197547    479.74898    7055.5753 
  433000    295.86523   -10206.898            0   -10151.177   -1631.8405    33.326621    33.462671    33.452816    2.3983013    480.92543    7053.1545 
  434000    309.66315    -10208.85            0   -10150.531   -371.85973    33.326621    33.462671    33.452816    2.4436448    482.20556    7052.2563 
  435000    303.97517   -10209.145            0   -10151.897   -1334.8944    33.326621    33.462671    33.452816     2.071953    483.49711    7051.5229 
  436000    301.68282   -10204.585            0   -10147.768   -837.86343    33.326621    33.462671    33.452816     2.459534    484.79637    7050.8985 
  437000    306.23862   -10208.485            0    -10150.81   -1208.3194    33.326621    33.462671    33.452816    2.1563315    486.14727    7051.0198 
  438000    302.87058   -10207.002            0   -10149.961   -2370.6776    33.326621    33.462671    33.452816    2.4675456    487.57327    7052.2196 
  439000    305.83778    -10207.43            0   -10149.831   -1272.7454    33.326621    33.462671    33.452816    2.5943452    488.92473    7052.3307 
  440000    303.13879   -10209.119            0   -10152.028   -540.69314    33.326621    33.462671    33.452816    2.2089332    490.33168    7053.2326 
  441000    302.40818   -10206.743            0    -10149.79    -2027.658    33.326621    33.462671    33.452816    2.3056832    491.58252    7051.8833 
  442000    302.45899   -10206.821            0   -10149.858   -1179.3227    33.326621    33.462671    33.452816    2.5055798    492.82161    7050.3664 
  443000      297.049   -10207.387            0   -10151.443   -1276.2737    33.326621    33.462671    33.452816    2.4188399    494.11607    7049.6407 
  444000    297.22475    -10209.72            0   -10153.743   -1904.1235    33.326621    33.462671    33.452816    2.5312535    495.32007    7047.6252 
  445000    292.20955   -10206.711            0   -10151.678   -1339.7319    33.326621    33.462671    33.452816    2.0521175    496.46913    7044.8341 
  446000    299.94432   -10206.154            0   -10149.665   -1752.5506    33.326621    33.462671    33.452816    3.0481028    497.77338    7044.2475 
  447000    290.61158   -10206.935            0   -10152.203   -2401.6163    33.326621    33.462671    33.452816      2.49469    498.99615    7042.5073 
  448000     311.7287   -10206.289            0   -10147.581   -1391.1031    33.326621    33.462671    33.452816    2.6551507    500.18037    7040.2272 
  449000     299.0951   -10207.492            0   -10151.163    -919.4079    33.326621    33.462671    33.452816    2.7916403    501.37348    7038.0773 
  450000    310.07112   -10206.533            0   -10148.137   -2058.9093    33.326621    33.462671    33.452816    2.6813241    502.56469    7035.9057 
  451000    296.30551   -10205.199            0   -10149.395   -978.62494    33.326621    33.462671    33.452816    2.7440421    503.74512    7033.5884 
  452000    290.63449   -10208.126            0   -10153.391    -1277.252    33.326621    33.462671    33.452816    2.5455711    504.99074    7032.1845 
  453000    300.83878   -10206.628            0   -10149.971   -1075.3451    33.326621    33.462671    33.452816    2.7765454    506.22552    7030.6308 
  454000    309.72651   -10203.766            0   -10145.435   -479.10176    33.326621    33.462671    33.452816    2.3634775    507.41803    7028.4933 
  455000    298.73876   -10206.476            0   -10150.214   -1572.2245    33.326621    33.462671    33.452816    2.1700316    508.64202    7026.7954 
  456000    296.19457    -10208.96            0   -10153.177   -1712.9655    33.326621    33.462671    33.452816    2.1463852    509.83417     7024.661 
  457000     306.5779   -10208.285            0   -10150.546   -452.59405    33.326621    33.462671    33.452816    2.7400495    511.05766     7022.962 
  458000    297.04089   -10208.159            0   -10152.217   -1400.3699    33.326621    33.462671    33.452816    2.3172161    512.27453    7021.1744 
  459000    294.00206   -10205.744            0   -10150.374   -28.180952    33.326621    33.462671    33.452816    2.7713698    513.52736    7019.8813 
  460000    301.37048   -10206.829            0   -10150.072   -1042.3197    33.326621    33.462671    33.452816    2.3380797    514.74117    7018.0564 
  461000    309.33847   -10206.993            0   -10148.734    16.572961    33.326621    33.462671    33.452816    2.7665706    515.96231    7016.3342 
  462000    297.58202   -10209.097            0   -10153.053   -617.10399    33.326621    33.462671    33.452816    2.4185083    517.19602    7014.7848 
  463000    298.23839    -10207.94            0   -10151.772    -481.0782    33.326621    33.462671    33.452816    2.9762122    518.43739    7013.3408 
  464000    298.99843   -10208.265            0   -10151.954    -963.7086    33.326621    33.462671    33.452816    2.6617983    519.66908    7011.7669 
  465000    304.38617   -10207.597            0   -10150.272   -622.98614    33.326621    33.462671    33.452816    2.7541017    520.89875    7010.1675 
  466000    297.34511   -10206.539            0    -10150.54   -1633.7152    33.326621    33.462671    33.452816    2.3756562    522.17403    7009.1821 
  467000    309.71745   -10208.695            0   -10150.365   -1371.3863    33.326621    33.462671    33.452816    2.5442062    523.59511    7010.1475 
  468000    317.52812   -10210.438            0   -10150.637   -1111.3122    33.326621    33.462671    33.452816    2.0411205    524.86219    7009.0448 
  469000    302.42545   -10208.066            0    -10151.11   -716.30301    33.326621    33.462671    33.452816    2.4563218    526.23168    7009.3056 
  470000    303.22585   -10205.193            0   -10148.086   -158.22379    33.326621    33.462671    33.452816    2.2888217    527.57812    7009.2522 
  471000    290.59799   -10208.483            0   -10153.754      127.615    33.326621    33.462671    33.452816     2.602218    528.88772    7008.7046 
  472000    301.01897   -10208.223            0   -10151.532   -569.01153    33.326621    33.462671    33.452816    2.2214467    530.21361    7008.3685 
  473000    303.24311   -10206.966            0   -10149.856   -439.86525    33.326621    33.462671    33.452816    2.4163829    531.38866    7006.0391 
  474000    295.68496    -10207.85            0   -10152.163   -1082.3123    33.326621    33.462671    33.452816    2.4863701    532.69177    7005.3994 
  475000     287.4172   -10205.083            0   -10150.953   -473.71872    33.326621    33.462671    33.452816    2.8223527    533.88168    7003.2714 
  476000     300.3056    -10206.11            0   -10149.553   -198.70561    33.326621    33.462671    33.452816    2.5203215    535.09883    7001.5045 
  477000    292.26725   -10208.361            0   -10153.318   -1427.1163    33.326621    33.462671    33.452816      2.11815    536.31039     6999.667 
  478000    302.93896   -10206.967            0   -10149.914   -537.29664    33.326621    33.462671    33.452816    2.7373077    537.53356    6997.9836 
  479000    297.44847   -10206.053            0   -10150.034   -892.69487    33.326621    33.462671    33.452816    2.1363166    538.78976    6996.7314 
  480000    305.29653    -10208.89            0   -10151.393   -1087.2739    33.326621    33.462671    33.452816    3.2639618    540.03278    6995.3084 
  481000    302.52931   -10210.027            0   -10153.051   -61.586396    33.326621    33.462671    33.452816    2.7403603    541.26811    6993.7868 
  482000    298.06938   -10205.878            0   -10149.742   -1272.6792    33.326621    33.462671    33.452816    2.2698493    542.46962    6991.8307 
  483000    302.34959   -10209.148            0   -10152.206   -615.57157    33.326621    33.462671    33.452816    3.0961676    543.69339    6990.1642 
  484000     297.7776   -10207.115            0   -10151.034   -1403.1178    33.326621    33.462671    33.452816    2.5152475     544.9272    6988.6286 
  485000    299.98141    -10207.46            0   -10150.964   -975.29549    33.326621    33.462671    33.452816    2.7086973    546.18166    6987.3584 
  486000    315.36985    -10209.42            0   -10150.026    -501.7447    33.326621    33.462671    33.452816    2.1092539    547.37584    6985.3192 
  487000    296.08676   -10209.515            0   -10153.753   -882.18047    33.326621    33.462671    33.452816    2.0381034    548.59007     6983.539 
  488000    299.67711    -10205.33            0   -10148.892   -997.34923    33.326621    33.462671    33.452816    2.3633444    549.79709    6981.6699 
  489000    302.37137   -10207.826            0    -10150.88   -2016.2089    33.326621    33.462671    33.452816    2.3318781    551.00118    6979.7666 
  490000    291.64668   -10208.709            0   -10153.783   -199.57366    33.326621    33.462671    33.452816    2.2086829    552.22033    6978.0569 
[...]
15930000    301.68061   -10216.166            0   -10159.349   -2544.7659    33.326621    33.462671    33.452816    2.6510363    12050.137    146.35794 
15931000    302.19848   -10215.725            0   -10158.811   -2642.3655    33.326621    33.462671    33.452816    2.1497975    12051.454    145.13947 
15932000    298.57784   -10216.314            0   -10160.083   -2242.5456    33.326621    33.462671    33.452816    2.2875715    12052.686    143.91995 
15933000    310.69919     -10215.4            0   -10156.885   -3040.9554    33.326621    33.462671    33.452816    2.3381701    12053.872    142.69989 
15934000    301.15213    -10213.97            0   -10157.253   -3649.2236    33.326621    33.462671    33.452816    2.5832595     12055.05    141.47974 
15935000     284.7455   -10215.478            0   -10161.852   -2321.8627    33.326621    33.462671    33.452816    3.0855573    12056.264    140.26003 
15936000    309.50714   -10216.088            0   -10157.798   -3978.7034    33.326621    33.462671    33.452816    2.0656513    12057.452    139.04001 
15937000    290.90206    -10214.82            0   -10160.034   -4526.5585    33.326621    33.462671    33.452816    2.3673934    12058.618    137.81975 
15938000     301.7939   -10216.184            0   -10159.346    -3435.914    33.326621    33.462671    33.452816    2.4367921    12059.795    136.59962 
15939000     296.1829   -10215.498            0   -10159.718   -1721.8836    33.326621    33.462671    33.452816    2.9487578    12060.982    135.37961 
15940000    293.32516   -10216.479            0   -10161.237    -2806.738    33.326621    33.462671    33.452816    2.1964028    12062.191    134.15986 
15941000     302.8449   -10215.574            0   -10158.539   -3597.7443    33.326621    33.462671    33.452816    2.1594001    12063.358    132.93964 
15942000    306.66721   -10216.264            0   -10158.509   -2761.6272    33.326621    33.462671    33.452816    2.2147053    12064.647    131.72077 
15943000    298.84415   -10215.433            0   -10159.151   -3560.7254    33.326621    33.462671    33.452816    1.9680706    12065.904    130.50154 
15944000    298.99194   -10215.445            0   -10159.135   -3692.6125    33.326621    33.462671    33.452816    2.7606987    12067.079    129.28142 
15945000     294.3436   -10216.132            0   -10160.698   -3065.9928    33.326621    33.462671    33.452816    2.4481216    12068.264    128.06142 
15946000    305.68945   -10212.657            0   -10155.086   -3098.0993    33.326621    33.462671    33.452816    3.1534534    12069.442    126.84134 
15947000     304.0683   -10214.827            0   -10157.561   -2722.1579    33.326621    33.462671    33.452816    3.2453599    12070.667    125.62177 
15948000     291.6721   -10216.306            0   -10161.374   -3033.3422    33.326621    33.462671    33.452816    2.7328708    12071.833     124.4016 
15949000     313.1677    -10214.57            0    -10155.59   -2885.2896    33.326621    33.462671    33.452816    2.6223546    12073.031    123.18175 
15950000    303.77304   -10216.854            0   -10159.643   -3124.9007    33.326621    33.462671    33.452816    2.6300059     12074.29    121.96252 
15951000    299.53169   -10213.896            0   -10157.484   -2416.3524    33.326621    33.462671    33.452816    2.4200796    12075.454    120.74234 
15952000    294.57733   -10217.381            0   -10161.902   -3643.6882    33.326621    33.462671    33.452816    2.0024002    12076.662    119.52261 
15953000    317.33808   -10214.864            0   -10155.099   -2958.1966    33.326621    33.462671    33.452816    2.2019324    12077.907    118.30324 
15954000    299.12089   -10216.594            0    -10160.26   -2788.2403    33.326621    33.462671    33.452816     2.137419    12079.076    117.08312 
15955000    297.72951   -10217.905            0   -10161.833   -3292.0093    33.326621    33.462671    33.452816    2.4047657     12080.31    115.86365 
15956000    305.21887   -10217.001            0   -10159.518   -4105.2348    33.326621    33.462671    33.452816    2.1731354    12081.484     114.6436 
15957000    301.29917   -10214.326            0   -10157.581   -2925.8701    33.326621    33.462671    33.452816    2.6681514    12082.695     113.4239 
15958000    301.78671   -10215.956            0    -10159.12   -2828.1219    33.326621    33.462671    33.452816    2.2921256    12083.879    112.20397 
15959000    302.60696   -10213.976            0   -10156.985   -2165.5648    33.326621    33.462671    33.452816    2.2418204    12085.111    110.98447 
15960000    301.54251   -10212.636            0   -10155.846   -3222.5593    33.326621    33.462671    33.452816    2.2916308    12086.419    109.76566 
15961000    297.62817   -10214.345            0   -10158.292    -2540.836    33.326621    33.462671    33.452816    2.0164632    12087.738    108.54693 
15962000    296.36925    -10214.61            0   -10158.794   -4352.0187    33.326621    33.462671    33.452816    2.4987195    12089.084    107.32843 
15963000    300.94445   -10215.871            0   -10159.193   -3213.9239    33.326621    33.462671    33.452816    2.2825404    12090.348    106.10918 
15964000    297.65185   -10214.566            0   -10158.508   -3215.5583    33.326621    33.462671    33.452816    2.0308737    12091.691     104.8906 
15965000     304.6219   -10215.386            0   -10158.016   -2951.8924    33.326621    33.462671    33.452816    2.8073638    12092.967    103.67142 
15966000    303.95015   -10215.554            0    -10158.31   -3505.6433    33.326621    33.462671    33.452816    2.3430443    12094.161    102.45155 
15967000    308.79436   -10215.655            0     -10157.5   -2658.7976    33.326621    33.462671    33.452816    2.5976639    12095.362    101.23173 
15968000     302.0167   -10215.204            0   -10158.324   -3827.2791    33.326621    33.462671    33.452816    2.5680146    12096.548    100.01179 
15969000    294.81294   -10214.619            0   -10159.096   -3488.4775    33.326621    33.462671    33.452816    2.1750637    12097.726    98.791791 
15970000    297.94886   -10214.753            0    -10158.64   -3211.1008    33.326621    33.462671    33.452816    2.4700929    12098.949    97.572173 
15971000    301.73368   -10214.986            0    -10158.16   -2824.4637    33.326621    33.462671    33.452816     3.012082    12100.153    96.352396 
15972000    299.26877   -10215.387            0   -10159.025   -4230.1579    33.326621    33.462671    33.452816    2.4050765    12101.367    95.132698 
15973000    289.76724   -10214.905            0   -10160.332   -3501.7709    33.326621    33.462671    33.452816     2.630109    12102.566    93.912884 
15974000    305.05911   -10217.496            0   -10160.043    -2386.884    33.326621    33.462671    33.452816     2.573456    12103.728    92.692795 
15975000    290.48977   -10216.078            0   -10161.369   -3093.6688    33.326621    33.462671    33.452816    2.5179089    12104.942    91.473111 
15976000    302.95807   -10213.643            0   -10156.586    -3128.011    33.326621    33.462671    33.452816    1.9296882    12106.177    90.253588 
15977000     299.1349   -10217.701            0   -10161.365    -3090.409    33.326621    33.462671    33.452816    2.1663405    12107.374    89.033778 
15978000    299.23353   -10216.238            0   -10159.883   -3192.2536    33.326621    33.462671    33.452816    2.6719258    12108.551    87.813827 
15979000    291.39521   -10213.745            0   -10158.866   -3108.4817    33.326621    33.462671    33.452816    2.2937157    12109.734    86.593927 
15980000    292.96213   -10214.612            0   -10159.437   -2936.7061    33.326621    33.462671    33.452816    3.1384405    12110.966    85.374382 
15981000    308.76944   -10217.843            0   -10159.692   -2830.2581    33.326621    33.462671    33.452816    2.1374725    12112.176    84.154683 
15982000    289.50224   -10215.307            0   -10160.784   -2846.9526    33.326621    33.462671    33.452816    2.6473026     12113.33    82.934602 
15983000    291.45779    -10215.72            0    -10160.83   -3353.3781    33.326621    33.462671    33.452816    2.3237166    12114.514    81.714732 
15984000    295.84522   -10217.192            0   -10161.475   -3302.1181    33.326621    33.462671    33.452816    2.1761568    12115.706    80.494926 
15985000    295.51512   -10215.417            0   -10159.762   -2886.1304    33.326621    33.462671    33.452816    2.1161839    12116.946    79.275437 
15986000    301.06108   -10216.571            0   -10159.871   -1954.7992    33.326621    33.462671    33.452816    2.0877105     12118.11    78.055458 
15987000    291.84074   -10217.316            0   -10162.353   -3421.9352    33.326621    33.462671    33.452816     2.076326    12119.305    76.835685 
15988000    293.49194   -10212.549            0   -10157.275   -3391.5431    33.326621    33.462671    33.452816    2.2360033    12120.535    75.616138 
15989000    297.53398    -10216.69            0   -10160.654   -2738.2026    33.326621    33.462671    33.452816    2.3476004    12121.744    74.396455 
15990000    300.12495   -10218.981            0   -10162.458   -3969.0557    33.326621    33.462671    33.452816     2.370842    12122.952    73.176773 
15991000    301.11245   -10215.688            0   -10158.979   -3005.1446    33.326621    33.462671    33.452816      2.56844    12124.188    71.957255 
15992000    304.95458   -10214.312            0   -10156.879   -2356.7544    33.326621    33.462671    33.452816    2.2717983    12125.429     70.73777 
15993000    306.27391   -10216.373            0   -10158.692   -2772.4525    33.326621    33.462671    33.452816    2.4822209     12126.71    69.518503 
15994000    296.82582   -10215.777            0   -10159.875   -2961.4628    33.326621    33.462671    33.452816     3.030699    12127.982    68.299176 
15995000    309.40774   -10214.574            0   -10156.302    -3349.237    33.326621    33.462671    33.452816    2.8535569    12129.275     67.07995 
15996000    289.92465   -10215.437            0   -10160.835   -2430.4952    33.326621    33.462671    33.452816     3.263018     12130.61    65.860945 
15997000    293.54046   -10216.318            0   -10161.035   -2947.1999    33.326621    33.462671    33.452816    2.5865374    12131.925    64.641805 
15998000    314.33652   -10213.051            0   -10153.851   -3063.0121    33.326621    33.462671    33.452816    2.5220329    12133.167    63.422264 
15999000    285.40124   -10214.876            0   -10161.126   -3613.1295    33.326621    33.462671    33.452816    2.1186215    12134.361    62.202473 
16000000    296.35368    -10215.35            0   -10159.537   -3674.6053    33.326621    33.462671    33.452816    2.2126407    12135.554    60.982684 
16001000    293.43145   -10216.157            0   -10160.894   -3100.5894    33.326621    33.462671    33.452816    2.4961383    12136.737     59.76285 
16002000    303.84678   -10216.957            0   -10159.733    -3798.949    33.326621    33.462671    33.452816    2.6151587    12137.932    58.543078 
16003000    293.46696   -10215.487            0   -10160.217   -3683.7767    33.326621    33.462671    33.452816    2.1385119    12139.126    57.323312 
16004000    299.47496   -10215.985            0   -10159.584   -3574.2317    33.326621    33.462671    33.452816    2.1827788    12140.332    56.103602 
16005000    298.08873   -10213.144            0   -10157.005   -3695.4517    33.326621    33.462671    33.452816    2.6919359    12141.524    54.883836 
16006000    304.51662   -10217.914            0   -10160.564   -2782.1407    33.326621    33.462671    33.452816     2.537569    12142.738    53.664169 
16007000      295.297   -10214.208            0   -10158.594   -3156.4804    33.326621    33.462671    33.452816    2.1201718    12143.917    52.444353 
16008000    302.80138   -10218.473            0   -10161.445   -1717.1003    33.326621    33.462671    33.452816    2.2072198    12145.127    51.224678 
16009000    301.28961   -10215.685            0   -10158.942     -3576.83    33.326621    33.462671    33.452816    3.3572776     12146.33    50.004973 
16010000    301.02322   -10215.446            0   -10158.754   -3059.2467    33.326621    33.462671    33.452816    2.1976987    12147.516    48.785206 
16011000    293.55858   -10216.769            0   -10161.483   -3150.4071    33.326621    33.462671    33.452816    2.1940249    12148.728    47.565546 
16012000    300.66789   -10214.218            0   -10157.592   -2402.4842    33.326621    33.462671    33.452816     2.550509    12149.904    46.345747 
16013000    302.27956   -10217.427            0   -10160.498   -3099.5444    33.326621    33.462671    33.452816    2.3629332    12151.067    45.125913 
16014000    305.89131   -10216.363            0   -10158.754   -2730.6133    33.326621    33.462671    33.452816    3.0898088    12152.304    43.906359 
16015000    302.96544   -10216.253            0   -10159.195   -2211.8367    33.326621    33.462671    33.452816    2.0200514     12153.49    42.686617 
16016000    285.92777   -10216.631            0   -10162.781   -2990.0262    33.326621    33.462671    33.452816    2.2810016    12154.696    41.466954 
16017000    299.06038   -10216.435            0   -10160.113   -3376.2429    33.326621    33.462671    33.452816    2.4966444      12155.9    40.247287 
16018000    303.06797   -10216.075            0   -10158.998   -3091.3752    33.326621    33.462671    33.452816    2.3062397    12157.136    39.027722 
16019000    293.08495    -10217.04            0   -10161.843   -2815.3505    33.326621    33.462671    33.452816    3.2565135     12158.34     37.80806 
16020000    305.41137   -10215.514            0   -10157.995     -2907.92    33.326621    33.462671    33.452816    2.4941225    12159.505    36.588281 
16021000    310.65308   -10217.879            0   -10159.373   -3394.2949    33.326621    33.462671    33.452816    2.4573684    12160.711     35.36863 
16022000    305.76288   -10216.523            0   -10158.938   -2472.5275    33.326621    33.462671    33.452816    2.1948011    12161.905     34.14895 
16023000    289.39011   -10215.494            0   -10160.993   -3059.6453    33.326621    33.462671    33.452816    2.0209849    12163.107    32.929298 
16024000    294.80629   -10214.114            0   -10158.593   -2786.4162    33.326621    33.462671    33.452816    2.1555341    12164.405    31.709899 
16025000    301.70651    -10216.34            0   -10159.519   -2755.2133    33.326621    33.462671    33.452816    2.0597689    12165.642     30.49033 
16026000    303.18794   -10217.599            0   -10160.499   -3023.2817    33.326621    33.462671    33.452816    2.5215829    12166.907    29.270826 
16027000    302.42607   -10214.554            0   -10157.597   -2549.1324    33.326621    33.462671    33.452816    2.6293886    12168.194    28.051363 
16028000    299.87874   -10216.515            0   -10160.038   -3034.1463    33.326621    33.462671    33.452816     2.244987    12169.507    26.831947 
16029000    306.59752   -10217.336            0   -10159.594   -2164.2288    33.326621    33.462671    33.452816     3.144097    12170.814    25.612495 
16030000    301.10853   -10216.089            0    -10159.38   -1851.8528    33.326621    33.462671    33.452816    2.3861657    12172.077    24.392939 
16031000    301.37998   -10218.989            0   -10162.229   -3416.6897    33.326621    33.462671    33.452816    2.1618046    12173.304    23.173307 
16032000    301.18643   -10214.554            0   -10157.831   -2446.0551    33.326621    33.462671    33.452816    2.4556846    12174.531    21.953673 
16033000    302.99443   -10219.418            0   -10162.355   -3027.6014    33.326621    33.462671    33.452816    2.3438006    12175.715    20.733963 
16034000    291.35609   -10214.317            0   -10159.445   -3166.6824    33.326621    33.462671    33.452816    2.1397615    12176.911     19.51428 
16035000    300.31591   -10216.364            0   -10159.805   -2799.6339    33.326621    33.462671    33.452816    3.0371104    12178.093    18.294582 
16036000    299.03982   -10217.945            0   -10161.626   -3501.3542    33.326621    33.462671    33.452816    2.3708577    12179.299    17.074923 
16037000    311.59699   -10218.086            0   -10159.403   -3212.8774    33.326621    33.462671    33.452816    2.4520232    12180.477    15.855231 
16038000    298.62387   -10217.327            0   -10161.087   -3522.9591    33.326621    33.462671    33.452816    2.9127748    12181.694    14.635595 
16039000    302.72207   -10215.915            0   -10158.902   -2668.7943    33.326621    33.462671    33.452816    2.5325837    12182.864    13.415908 
16040000    291.93128   -10215.319            0   -10160.339    -3714.382    33.326621    33.462671    33.452816    2.6311136     12184.06    12.196257 
16041000    308.06962   -10217.446            0   -10159.427   -3264.7429    33.326621    33.462671    33.452816    2.5332824    12185.203    10.976562 
16042000    300.49494   -10213.604            0   -10157.011   -3221.7512    33.326621    33.462671    33.452816    2.5442509    12186.399    9.7569247 
16043000    297.19835   -10216.909            0   -10160.937   -3086.2444    33.326621    33.462671    33.452816    2.5253336    12187.582    8.5372837 
16044000    299.10506   -10213.934            0   -10157.603   -4639.5176    33.326621    33.462671    33.452816    2.1646203    12188.798    7.3176696 
16045000    300.02439   -10217.409            0   -10160.905   -2757.7061    33.326621    33.462671    33.452816    2.3362113    12189.982      6.09804 
16046000    312.09674   -10215.143            0   -10156.366   -3699.7161    33.326621    33.462671    33.452816    2.5655674    12191.166    4.8784179 
16047000    293.79005    -10215.37            0    -10160.04   -3356.4474    33.326621    33.462671    33.452816    2.3439972    12192.364    3.6588069 
16048000    299.43236   -10216.657            0   -10160.264   -2688.9877    33.326621    33.462671    33.452816    2.5703827    12193.623    2.4392124 
16049000     312.1142    -10214.24            0   -10155.459   -3059.8796    33.326621    33.462671    33.452816    2.3062289    12194.829    1.2196049 
16050000    298.51479   -10214.813            0   -10158.593    -3595.184    33.326621    33.462671    33.452816    2.0636185    12196.012            0 
Loop time of 12196 on 80 procs for 10000000 steps with 1458 atoms

Performance: 70.843 ns/day, 0.339 hours/ns, 819.940 timesteps/s
99.3% CPU use with 80 MPI tasks x 1 OpenMP threads

MPI task timing breakdown:
Section |  min time  |  avg time  |  max time  |%varavg| %total
---------------------------------------------------------------
Pair    | 759.76     | 1223.7     | 1492.7     | 420.9 | 10.03
Kspace  | 5796.3     | 6144.7     | 6548.7     | 189.2 | 50.38
Neigh   | 19.705     | 28.036     | 32.888     |  47.9 |  0.23
Comm    | 4502.2     | 4643.3     | 4825       |  96.8 | 38.07
Output  | 8.2684     | 8.6681     | 8.6774     |   1.5 |  0.07
Modify  | 85.205     | 93.199     | 100.77     |  33.6 |  0.76
Other   |            | 54.31      |            |       |  0.45

Nlocal:    18.225 ave 24 max 12 min
Histogram: 3 2 3 10 14 23 11 9 4 1
Nghost:    1764.09 ave 1801 max 1738 min
Histogram: 6 5 16 15 12 11 7 3 3 2
Neighs:    4084.81 ave 5282 max 2661 min
Histogram: 3 2 4 10 16 10 16 10 8 1

Total # of neighbors = 326785
Ave neighs/atom = 224.132
Neighbor list builds = 165826
Dangerous builds = 0

# Final Commands
variable        final_energy equal etotal
print           "final_energy: ${'final_energy'}"
ERROR on proc 0: Substitution for illegal variable 'final_energy' (../input.cpp:553)
Last command: final_energy: ${'final_energy'
