LAMMPS (7 Aug 2019)
  using 1 OpenMP thread(s) per MPI task

# Input written to comply with LAMMPS 2017-08-11 00:00:00

# Atomic Configuration
units           metal
boundary        p p p
box             tilt large
atom_style      charge
read_data       monoclinic_7x7x7.lmp
  triclinic box = (0 0 0) to (71.9621 72.1932 72.0097) with tilt (-0.0740679 -0.228135 -0.206434)
  4 by 8 by 5 MPI processor grid
  reading atoms ...
  18522 atoms
  read_data CPU = 0.062602 secs
group           lithium type 1
5831 atoms in group lithium
group           scandium type 2
1715 atoms in group scandium
group           chloride type 3
10976 atoms in group chloride
variable        T1 equal 600
variable        dt equal 0.001

# Potential Setup
pair_style      buck/coul/long 12.0
pair_coeff      * * 0.0 1.0 0.0
pair_coeff      1 1    360.530000  0.161000   0.000000 # Li Li
pair_coeff      1 3    421.040000  0.344000   0.000000 # Li Cl
pair_coeff      3 3   1227.200000  0.321000  14.530000 # Cl Cl
pair_coeff      2 3  12131.350000  0.250700   0.000000 # Sc Cl

kspace_style    pppm 1e-05

# General Setup
timestep        ${dt}
timestep        0.001

# Thermodynamic Information Output
thermo_style    custom step temp epair emol etotal press lx ly lz fmax cpu cpuremain
thermo          1000

# Intial Atom Velocity
velocity        all create ${T1} 794571 dist gaussian rot yes
velocity        all create 600 794571 dist gaussian rot yes

# Stage 0: npt_equilibriation
restart         0
fix             int all npt aniso 1.0 1.0 $(1000*dt) temp ${T1} ${T1} $(100*dt)
fix             int all npt aniso 1.0 1.0 1 temp ${T1} ${T1} $(100*dt)
fix             int all npt aniso 1.0 1.0 1 temp 600 ${T1} $(100*dt)
fix             int all npt aniso 1.0 1.0 1 temp 600 600 $(100*dt)
fix             int all npt aniso 1.0 1.0 1 temp 600 600 0.10000000000000000555
run             50000
PPPM initialization ...
  using 12-bit tables for long-range coulomb (../kspace.cpp:323)
  G vector (1/distance) = 0.266277
  grid = 64 64 64
  stencil order = 5
  estimated absolute RMS force accuracy = 0.000166011
  estimated relative force accuracy = 1.15288e-05
  using double precision MKL FFT
  3d grid and FFT values/proc = 6900 1792
Neighbor list info ...
  update every 1 steps, delay 10 steps, check yes
  max neighbors/atom: 2000, page size: 100000
  master list distance cutoff = 14
  ghost atom cutoff = 14
  binsize = 7, bins = 11 11 11
  1 neighbor lists, perpetual/occasional/extra = 1 0 0
  (1) pair buck/coul/long, perpetual
      attributes: half, newton on
      pair build: half/bin/newton/tri
      stencil: half/bin/3d/newton/tri
      bin: standard
Per MPI rank memory allocation (min/avg/max) = 3.866 | 3.931 | 4.253 Mbytes
Step Temp E_pair E_mol TotEng Press Lx Ly Lz Fmax CPU CPULeft 
       0          600      -125257            0   -123820.59    1316.2692    71.962067    72.193154    72.009717     2.700585            0            0 
    1000    591.39879   -128508.44            0   -127092.62    443.87387    76.966709    77.272858    77.578194    3.9752405    4.2715399    209.30546 
    2000    605.06266   -128561.45            0   -127112.91   -175.32459    76.913084    78.497583    78.079126    4.4023452    8.5309429    204.74263 
    3000    596.63478    -128639.6            0   -127211.24    2.5296564    76.627538    79.305693    77.783717    4.0545049    12.630261     197.8741 
    4000    599.39559      -128652            0   -127217.03    45.284686    76.499978    79.932901     77.49185     4.131946    16.750591    192.63181 
    5000    598.40105   -128689.64            0   -127257.05   -51.958874    76.234578    79.976185    77.592909    3.7670786    20.776588     186.9893 
    6000    604.67461    -128713.8            0   -127266.19   -124.40445    76.079104    80.238411    77.428373    4.0337085    24.786945    181.77094 
    7000    597.40502   -128723.33            0   -127293.13   -20.302652     76.04752    80.275332    77.422578     4.010014    29.018496    178.25648 
    8000    605.50693    -128740.8            0    -127291.2   0.31804345    75.986496    80.605191    77.336705    4.7867229    33.879769    177.86879 
    9000    595.60182   -128739.76            0   -127313.87    91.139562    75.890685    80.473183    77.320725    4.0204266    38.596392    175.82801 
   10000    603.87282    -128754.1            0   -127308.41   -432.79717    76.044494    80.526412    77.156426    4.1540847    42.578178    170.31272 
   11000    606.99702   -128753.84            0   -127300.67    160.11084     75.94506    80.702306    76.962253    3.9747915    46.596474    165.20568 
   12000    600.97825   -128763.15            0   -127324.39    137.33848    75.913963    80.437272    77.217803    3.9051884    50.443072     159.7364 
   13000    599.25543    -128764.6            0   -127329.96   -82.522456    75.934694    80.462832     77.23123    4.5050674    54.321645    154.60776 
   14000      596.415   -128763.86            0   -127336.02    -362.0972    75.830569     80.72773    77.161654    4.1671337    58.244104    149.77056 
   15000    604.23107   -128787.57            0   -127341.03    40.674872    76.078362    80.780802    76.647769    4.7323389     62.17768    145.08126 
   16000    599.07051   -128808.67            0   -127374.48    70.215727    75.818051    81.059092    76.651664    4.9203361    66.149221    140.56709 
   17000    600.50852   -128786.29            0   -127348.66   -265.49662    75.949717    80.887652    76.752933    4.0076033    70.376697    136.61359 
   18000    607.66199   -128790.23            0   -127335.47   -168.05656    75.842515     80.98496    76.733943    3.8612015    75.043934    133.41144 
   19000    598.62869   -128803.75            0   -127370.62    409.59063    75.569898    81.005494    76.713114    4.1394309    79.565795    129.81788 
   20000    593.11243   -128816.49            0   -127396.56    66.680534    75.719668    81.097431    76.470403    4.2016421     83.61939    125.42909 
   21000    605.23045   -128808.77            0   -127359.83    264.67801    75.878482    81.073672    76.400471    4.6339681    87.599341    120.97052 
   22000    602.09515   -128810.99            0   -127369.56   -52.030649    75.809773    80.803915    76.585549    4.0671107    91.668456    116.66895 
   23000    601.77777   -128827.55            0   -127386.88    79.587993    75.760411    80.909085    76.511944    4.2215089     95.53766    112.15291 
   24000    601.57171    -128801.3            0   -127361.12    733.37389    75.734599    80.853113    76.555055    4.2577464    99.584032     107.8827 
   25000    600.35754      -128799            0   -127361.73     299.4466    75.802279    80.840428    76.614109    4.7790501     103.5404     103.5404 
   26000    595.68363   -128812.76            0   -127386.68    161.92228    75.716011    80.878336    76.530924    3.9107758    107.54467    99.272006 
   27000    598.96672    -128818.1            0   -127384.16    313.66854    75.778959    80.895253    76.390037    4.3815621    112.01787    95.422632 
   28000    597.77059   -128819.24            0   -127388.16    237.51204    75.697641    80.705744    76.561815    4.0444211    116.79546    91.767862 
   29000    600.85382   -128808.33            0   -127369.87    244.41423    75.664496    80.831008    76.498061    4.3833759     121.0696    87.671088 
   30000    595.51314   -128842.94            0   -127417.27   -616.03446    75.475408    80.857181    76.749676    5.3782135    124.88297    83.255311 
   31000    594.82688   -128830.37            0   -127406.34    220.58885    75.554735    80.761743    76.616133    5.1281752    128.74349    78.907302 
   32000    602.41252   -128811.63            0   -127369.44   -26.162173    75.638132    80.821411    76.615678    4.2210985    132.77908    74.688233 
   33000    599.34938   -128820.79            0   -127385.93    46.333732    75.677983    80.618463    76.655043    4.4923789    136.78679    70.465921 
   34000    601.50065   -128827.13            0   -127387.12   -71.425952    75.785449    80.721203    76.479358    5.0787836    140.75759    66.238864 
   35000    596.29732   -128826.52            0   -127398.97   -305.65958    75.824591    80.639852     76.58667    4.3857214    144.70634    62.017003 
   36000    605.14947   -128847.41            0   -127398.67   -44.903622    75.821051    80.655211     76.34419    4.1464047    148.73891    57.842911 
   37000    596.10352    -128831.1            0   -127404.02    66.020357    75.705623     80.78254    76.313216    4.1380368    153.47758    53.924555 
   38000    598.14818   -128829.39            0   -127397.41   -350.35484    75.732846    80.654451    76.367429    4.3039488    158.24444    49.971927 
   39000    608.94942   -128831.18            0   -127373.34    197.23704    75.735754    80.570576     76.21421    4.4413027    162.24578     45.76163 
   40000    607.00987   -128844.77            0   -127391.58    454.74887    75.716622    80.633954    76.089325    3.8332108     166.1656    41.541401 
   41000    601.48469   -128824.32            0   -127384.35    -1.340709    75.481795    80.985974    76.275612    4.5601628     170.1006    37.339157 
   42000    604.26616    -128849.7            0   -127403.07   -376.08322    75.553541    80.840381    76.280285    4.0466941    173.90326     33.12443 
   43000    598.05967   -128831.45            0   -127399.68   -233.63802    75.511223    80.828982    76.366695    4.6130044    177.81599    28.946789 
   44000    598.34415   -128836.47            0   -127404.02    176.52406    75.701185    80.687129    76.299894    4.2363503    181.65259    24.770807 
   45000    598.68907   -128838.54            0   -127405.26    367.50665    75.424304     80.79362    76.254249    4.5476886    185.65706    20.628562 
   46000    599.89628   -128833.13            0   -127396.96    62.075993    75.448893    80.671851    76.319667    4.8420695     189.8124    16.505427 
   47000    600.35391   -128851.67            0    -127414.4   -218.60343     75.43748    80.819705    76.248987    3.8943459    194.30462    12.402423 
   48000    594.77706   -128817.51            0    -127393.6   -170.06813    75.500677    80.856295    76.348433    4.2564592    198.94876    8.2895315 
   49000    598.55327   -128837.31            0   -127404.35     26.55631    75.539384    80.855872    76.198772    4.1701807    202.88403    4.1404904 
   50000    597.49369   -128832.36            0   -127401.94   -185.12215    75.663461    80.928777    76.236895    4.3949808    206.76174            0 
Loop time of 206.762 on 160 procs for 50000 steps with 18522 atoms

Performance: 20.894 ns/day, 1.149 hours/ns, 241.824 timesteps/s
98.7% CPU use with 160 MPI tasks x 1 OpenMP threads

MPI task timing breakdown:
Section |  min time  |  avg time  |  max time  |%varavg| %total
---------------------------------------------------------------
Pair    | 34.041     | 37.007     | 40.587     |  21.5 | 17.90
Kspace  | 117.74     | 121.82     | 124.88     |  12.6 | 58.92
Neigh   | 1.6116     | 1.7289     | 1.8532     |   3.5 |  0.84
Comm    | 23.735     | 25.674     | 27.236     |  20.5 | 12.42
Output  | 0.003438   | 0.0034868  | 0.0047123  |   0.2 |  0.00
Modify  | 15.048     | 16.653     | 18.377     |  22.3 |  8.05
Other   |            | 3.878      |            |       |  1.88

Nlocal:    115.763 ave 131 max 104 min
Histogram: 2 14 24 31 40 18 12 9 8 2
Nghost:    2954.83 ave 3005 max 2890 min
Histogram: 1 2 8 14 27 34 42 24 2 6
Neighs:    26345.3 ave 30462 max 23482 min
Histogram: 6 13 28 35 35 13 17 7 3 3

Total # of neighbors = 4215248
Ave neighs/atom = 227.581
Neighbor list builds = 1774
Dangerous builds = 0

# Stage 1: nvt_equilibriation
unfix           int
restart         0
fix             int all nvt temp ${T1} ${T1} $(100*dt)
fix             int all nvt temp 600 ${T1} $(100*dt)
fix             int all nvt temp 600 600 $(100*dt)
fix             int all nvt temp 600 600 0.10000000000000000555
run             50000
PPPM initialization ...
  using 12-bit tables for long-range coulomb (../kspace.cpp:323)
  G vector (1/distance) = 0.267736
  grid = 72 72 72
  stencil order = 5
  estimated absolute RMS force accuracy = 0.000127379
  estimated relative force accuracy = 8.84601e-06
  using double precision MKL FFT
  3d grid and FFT values/proc = 8800 2880
Per MPI rank memory allocation (min/avg/max) = 3.994 | 4.263 | 4.445 Mbytes
Step Temp E_pair E_mol TotEng Press Lx Ly Lz Fmax CPU CPULeft 
   50000    597.49369   -128832.38            0   -127401.96   -185.72716    75.663461    80.928777    76.236895    4.3951333            0            0 
   51000     597.0796   -128834.58            0   -127405.15   -180.97578    75.663461    80.928777    76.236895    4.1324776    4.0988431    200.84331 
   52000    604.20048   -128834.15            0   -127387.68   -447.81707    75.663461    80.928777    76.236895    5.0485076      8.21523    197.16554 
   53000    601.59442   -128838.39            0   -127398.16    -214.8127    75.663461    80.928777    76.236895    4.0752382    12.265288     192.1562 
   54000    603.00461    -128838.9            0   -127395.29   -554.43393    75.663461    80.928777    76.236895    3.9829983    16.333353    187.83357 
   55000    594.62005   -128837.63            0    -127414.1   -235.25601    75.663461    80.928777    76.236895    4.1047421    20.388311    183.49481 
   56000    594.74762   -128806.76            0   -127382.92   -99.960172    75.663461    80.928777    76.236895    5.3326976    24.772176    181.66263 
   57000    602.54937   -128828.04            0   -127385.52   -355.19072    75.663461    80.928777    76.236895    4.1728407    29.368825     180.4085 
   58000    604.32878   -128846.33            0   -127399.55   -672.48048    75.663461    80.928777    76.236895    3.7097053    33.740955    177.14002 
   59000    600.30779   -128828.31            0   -127391.16   -465.08098    75.663461    80.928777    76.236895    4.1994159    37.748442    171.96513 
   60000    597.89556    -128832.5            0   -127401.12   -196.16286    75.663461    80.928777    76.236895    3.9669442    41.746853    166.98742 
   61000    603.50787   -128832.84            0   -127388.03    -507.4733    75.663461    80.928777    76.236895    4.0771079    45.728927    162.12984 
   62000    600.25749   -128847.54            0   -127410.51    -914.9709    75.663461    80.928777    76.236895     4.435205    49.764215    157.58668 
   63000    600.81368   -128840.94            0   -127402.57   -153.99507    75.663461    80.928777    76.236895    4.4720927    53.726935    152.91513 
   64000    597.01128    -128831.4            0   -127402.13   -629.87847    75.663461    80.928777    76.236895    4.9614762    57.827699     148.6998 
   65000    602.33076   -128834.19            0    -127392.2   -761.31604    75.663461    80.928777    76.236895    4.3422035        61.93    144.50334 
   66000     603.5506   -128822.38            0   -127377.46   -443.07253    75.663461    80.928777    76.236895    4.4308824    66.398051    141.09586 
   67000    593.53116   -128828.15            0   -127407.22   -306.99152    75.663461    80.928777    76.236895    4.7510985    71.044213    137.90936 
   68000    596.70706   -128821.86            0   -127393.33   -21.978882    75.663461    80.928777    76.236895    4.4221892    75.258127    133.79223 
   69000    603.47594   -128832.09            0   -127387.35    -57.70332    75.663461    80.928777    76.236895    4.6434246    79.284784    129.35939 
   70000    597.82011   -128853.96            0   -127422.77   -310.26763    75.663461    80.928777    76.236895    6.4178569    83.328265     124.9924 
   71000    603.16828   -128835.44            0   -127391.44   -760.58196    75.663461    80.928777    76.236895     3.685893    87.364522    120.64625 
   72000     603.4465    -128832.5            0   -127387.84    36.535989    75.663461    80.928777    76.236895    4.2346678    91.388247    116.31232 
   73000    599.79004   -128833.28            0   -127397.37   -654.78738    75.663461    80.928777    76.236895     4.532642    95.338595    111.91922 
   74000    601.45946   -128833.12            0   -127393.21   -228.83832    75.663461    80.928777    76.236895    4.9197737    99.271493    107.54412 
   75000    604.54615   -128839.79            0   -127392.49   -81.634009    75.663461    80.928777    76.236895    4.0680189    103.53794    103.53794 
   76000    600.79298   -128848.51            0    -127410.2    -391.2913    75.663461    80.928777    76.236895    5.4544129    108.20657    99.882991 
   77000    602.54495   -128825.99            0   -127383.48   -300.64781    75.663461    80.928777    76.236895    4.3139281    112.76547    96.059478 
   78000     591.5416   -128839.91            0   -127423.74   -721.66965    75.663461    80.928777    76.236895    3.9671207    116.82712    91.792737 
   79000    594.97297   -128825.55            0   -127401.17   -512.66937    75.663461    80.928777    76.236895    4.1608089    120.70909    87.410031 
   80000    607.36735   -128844.93            0   -127390.87   -761.03448    75.663461    80.928777    76.236895    5.0953639    124.69751    83.131673 
   81000    601.30346      -128834            0   -127394.46   -371.92843    75.663461    80.928777    76.236895    4.2286082    128.67859     78.86752 
   82000    600.80904      -128833            0   -127394.65   -1059.9832    75.663461    80.928777    76.236895    3.7011631    132.60632    74.591056 
   83000    603.13102   -128822.57            0   -127378.66    -800.7905    75.663461    80.928777    76.236895    4.0648326    136.55515    70.346594 
   84000    600.35432   -128850.44            0   -127413.18   -339.24624    75.663461    80.928777    76.236895    4.2485784    140.68304    66.203785 
   85000    605.48782   -128856.91            0   -127407.36   -426.78559    75.663461    80.928777    76.236895    4.6347786    145.09337    62.182872 
   86000    598.86085    -128826.4            0   -127392.72   -358.45395    75.663461    80.928777    76.236895    4.4899295    149.82551    58.265475 
   87000     603.8833   -128821.11            0   -127375.39   -150.40718    75.663461    80.928777    76.236895    4.2666764    154.05575    54.127696 
   88000    596.55396    -128846.2            0   -127418.03   -1086.1252    75.663461    80.928777    76.236895    5.0744016     158.0415    49.907842 
   89000    595.35522   -128842.59            0   -127417.29   -849.74386    75.663461    80.928777    76.236895    4.5685791    162.03967    45.703498 
   90000    596.99965   -128821.31            0   -127392.08   -654.79469    75.663461    80.928777    76.236895    3.7225049    165.98967    41.497418 
   91000    596.66266   -128835.08            0   -127406.65   -841.05507    75.663461    80.928777    76.236895    4.4375611    170.07856    37.334319 
   92000    600.43203    -128844.3            0   -127406.85   -290.51369    75.663461    80.928777    76.236895    4.7126317    174.02931     33.14844 
   93000    600.08042   -128849.98            0   -127413.37   -448.67258    75.663461    80.928777    76.236895    4.1992291    178.00985    28.978348 
   94000    602.88832   -128854.98            0   -127411.65   -735.15928    75.663461    80.928777    76.236895    4.0763969    182.05644    24.825878 
   95000    602.80793   -128852.57            0   -127409.43   -1020.8055    75.663461    80.928777    76.236895    4.0715625    186.62057    20.735619 
   96000    597.34847   -128838.02            0   -127407.95   -809.93119    75.663461    80.928777    76.236895     4.709105    191.17195    16.623647 
   97000    598.80248   -128832.41            0   -127398.86   -133.71823    75.663461    80.928777    76.236895    4.5589706    195.28425    12.464952 
   98000    597.51054      -128829            0   -127398.54   -624.22025    75.663461    80.928777    76.236895     3.701408    199.32423    8.3051761 
   99000    597.69159   -128846.68            0   -127415.79   -194.04132    75.663461    80.928777    76.236895     4.146517    203.38448    4.1507038 
  100000    600.50755   -128854.78            0   -127417.15   -391.85939    75.663461    80.928777    76.236895      4.27744    207.36632            0 
Loop time of 207.366 on 160 procs for 50000 steps with 18522 atoms

Performance: 20.833 ns/day, 1.152 hours/ns, 241.119 timesteps/s
98.8% CPU use with 160 MPI tasks x 1 OpenMP threads

MPI task timing breakdown:
Section |  min time  |  avg time  |  max time  |%varavg| %total
---------------------------------------------------------------
Pair    | 34.014     | 36.995     | 40.802     |  22.0 | 17.84
Kspace  | 120.41     | 123.66     | 126.62     |  12.4 | 59.63
Neigh   | 1.6172     | 1.726      | 1.8541     |   3.6 |  0.83
Comm    | 33.046     | 35.887     | 37.936     |  16.6 | 17.31
Output  | 0.0031583  | 0.003194   | 0.0041866  |   0.1 |  0.00
Modify  | 7.032      | 8.4668     | 10.245     |  26.7 |  4.08
Other   |            | 0.627      |            |       |  0.30

Nlocal:    115.763 ave 128 max 96 min
Histogram: 1 0 0 14 20 46 30 24 14 11
Nghost:    2960.86 ave 3016 max 2904 min
Histogram: 3 7 9 21 39 38 19 15 5 4
Neighs:    26343.2 ave 29428 max 21578 min
Histogram: 1 0 4 13 23 42 31 20 16 10

Total # of neighbors = 4214904
Ave neighs/atom = 227.562
Neighbor list builds = 1743
Dangerous builds = 0

# Stage 2: main_nvt_simulation
unfix           int
compute         lithiummsd lithium msd com yes
compute         scandiummsd scandium msd com yes
compute         chloridemsd chloride msd com yes
fix             lithiummsdt lithium ave/time 1 1 1000 c_lithiummsd[4] file monoclinic_7x7x7_600_li.txt
fix             scandiummymsdt scandium ave/time 1 1 1000 c_scandiummsd[4] file monoclinic_7x7x7_600_sc.txt
fix             chloridemymsdt chloride ave/time 1 1 1000 c_chloridemsd[4] file monoclinic_7x7x7_600_cl.txt
dump            atom_info all custom 1000 monoclinic_7x7x7_600.lammpstrj element x y z q id type vx vy vz
dump_modify     atom_info append yes
dump_modify     atom_info sort id
dump_modify     atom_info element Li Sc Cl
restart         0
fix             int all nvt temp ${T1} ${T1} $(100*dt)
fix             int all nvt temp 600 ${T1} $(100*dt)
fix             int all nvt temp 600 600 $(100*dt)
fix             int all nvt temp 600 600 0.10000000000000000555
run             16000000
PPPM initialization ...
  using 12-bit tables for long-range coulomb (../kspace.cpp:323)
  G vector (1/distance) = 0.267736
  grid = 72 72 72
  stencil order = 5
  estimated absolute RMS force accuracy = 0.000127379
  estimated relative force accuracy = 8.84601e-06
  using double precision MKL FFT
  3d grid and FFT values/proc = 8800 2880
Per MPI rank memory allocation (min/avg/max) = 6.407 | 6.711 | 6.858 Mbytes
Step Temp E_pair E_mol TotEng Press Lx Ly Lz Fmax CPU CPULeft 
  100000    600.50755   -128854.78            0   -127417.15   -391.85939    75.663461    80.928777    76.236895      4.27744            0            0 
  101000     599.3629   -128834.57            0   -127399.68   -517.52039    75.663461    80.928777    76.236895    3.7821726    4.0335901    64533.408 
  102000    600.27956   -128838.04            0   -127400.95   -42.358946    75.663461    80.928777    76.236895    3.9562583     7.876883    63007.195 
  103000    594.32673   -128838.31            0   -127415.48   -738.85688    75.663461    80.928777    76.236895     4.013157    11.837869    63123.469 
  104000    604.52239   -128834.54            0    -127387.3  -0.95770483    75.663461    80.928777    76.236895    3.8077509    15.969189    63860.791 
  105000    597.08415   -128847.12            0   -127417.68   -99.439449    75.663461    80.928777    76.236895    4.2780508    20.382797    65204.571 
  106000    602.93745   -128832.64            0   -127389.19   -598.85364    75.663461    80.928777    76.236895    4.6478323    24.819086    66159.413 
  107000    599.14923   -128857.29            0   -127422.91    -493.4309    75.663461    80.928777    76.236895    4.3249993    28.763511    65716.407 
  108000    600.01234   -128839.01            0   -127402.56   -152.80804    75.663461    80.928777    76.236895    4.3884606    32.674412     65316.15 
  109000    595.10253   -128847.37            0   -127422.68   -77.581501    75.663461    80.928777    76.236895    4.0524598    36.643503    65107.363 
  110000    606.68031   -128827.69            0   -127375.28   -387.00701    75.663461    80.928777    76.236895    3.8414189    40.632281    64971.019 
  111000    600.17557   -128834.77            0   -127397.93   -632.45886    75.663461    80.928777    76.236895    4.2412958     44.62216    64860.338 
  112000    598.92133   -128847.66            0   -127413.83   -552.67595    75.663461    80.928777    76.236895    5.0154756    48.563039    64702.157 
  113000    600.99212   -128852.24            0   -127413.45   -473.34999    75.663461    80.928777    76.236895    4.2297178    52.564906    64642.705 
  114000     603.0044   -128837.08            0   -127393.48   -559.71955    75.663461    80.928777    76.236895    3.9503541    56.915467    64989.334 
  115000    597.87767   -128849.29            0   -127417.96   -250.58777    75.663461    80.928777    76.236895    4.7063683    61.434217    65468.397 
  116000    598.39243   -128824.91            0   -127392.35   -231.72423    75.663461    80.928777    76.236895    4.0729277    65.848547    65782.699 
  117000    603.57442   -128848.29            0   -127403.32    -744.3574    75.663461    80.928777    76.236895    4.1874469    69.743938    65571.609 
  118000    607.90985   -128828.24            0   -127372.89   -540.90052    75.663461    80.928777    76.236895    4.8880544    73.563735    65316.424 
  119000    595.93777   -128832.43            0   -127405.74   -925.44077    75.663461    80.928777    76.236895    4.4670349    77.477598    65166.816 
  120000    600.17342   -128824.57            0   -127387.74    -751.2404    75.663461    80.928777    76.236895    4.2480094    81.351473    64999.827 
  121000    597.11223   -128834.28            0   -127404.77   -411.49061    75.663461    80.928777    76.236895    5.0457087    85.377029    64963.789 
  122000    595.27463   -128838.82            0   -127413.72   -850.86147    75.663461    80.928777    76.236895    6.0100272    89.280973    64842.336 
  123000    598.29383   -128830.15            0   -127397.81   -593.04784    75.663461    80.928777    76.236895    4.2308412    93.333801    64834.528 
  124000    599.89005   -128837.91            0   -127401.76   -444.52428    75.663461    80.928777    76.236895    4.2016036    97.625839    64986.267 
  125000     601.7898   -128835.78            0   -127395.08   -271.28182    75.663461    80.928777    76.236895    4.8346723    102.15709    65278.379 
  126000    606.06362   -128835.75            0   -127384.82   -614.15068    75.663461    80.928777    76.236895    4.3018578    106.42775     65387.57 
  127000    593.23965   -128843.15            0   -127422.92   -542.36221    75.663461    80.928777    76.236895    4.0913043    110.37936    65299.611 
  128000    598.46075   -128836.19            0   -127403.46   -738.07409    75.663461    80.928777    76.236895     3.998551    114.36537    65237.276 
  129000    602.02611    -128823.9            0   -127382.63   -640.95012    75.663461    80.928777    76.236895    4.5133032    118.22148     65107.42 
  130000    600.36873   -128838.89            0   -127401.59   -389.21003    75.663461    80.928777    76.236895    4.2171545    122.15598      65027.7 
  131000    595.20901   -128842.85            0    -127417.9   -524.26969    75.663461    80.928777    76.236895    3.9335284    126.10626    64960.998 
  132000    597.79288   -128843.51            0   -127412.37   -578.90263    75.663461    80.928777    76.236895    4.1268453     129.9963    64868.153 
  133000    605.45973   -128856.24            0   -127406.76   -291.02508    75.663461    80.928777    76.236895    4.2995062     133.9475    64810.295 
  134000    600.93004   -128830.85            0   -127392.21   -556.95169    75.663461    80.928777    76.236895    4.0708879    138.45971    65019.052 
  135000    599.73679   -128857.86            0   -127422.07   -890.90545    75.663461    80.928777    76.236895    3.5538259    142.93164    65197.245 
  136000    597.57828   -128843.75            0   -127413.13   -467.73619    75.663461    80.928777    76.236895    4.8284214    147.25197    65298.067 
  137000     599.8814   -128864.41            0   -127428.28   -143.88814    75.663461    80.928777    76.236895    4.0826459    151.24296    65251.118 
  138000    601.05955    -128851.7            0   -127412.75   -581.85612    75.663461    80.928777    76.236895    4.3366144     155.1335    65164.234 
  139000    600.89553   -128853.28            0   -127414.72   -586.68945    75.663461    80.928777    76.236895     4.311309    159.12102      65121.3 
  140000    597.95603   -128834.75            0   -127403.22   -750.61545    75.663461    80.928777    76.236895    4.7106625    162.99081    65033.334 
  141000    595.78823   -128834.18            0   -127407.85   -705.79168    75.663461    80.928777    76.236895    4.2760366     167.0222    65012.372 
  142000    598.36956   -128852.63            0   -127420.12   -904.96216    75.663461    80.928777    76.236895    4.1719365    171.02574    64981.638 
  143000    603.58615   -128821.07            0   -127376.07   -782.19687    75.663461    80.928777    76.236895    4.6689891    175.13821    64992.567 
  144000    599.02594   -128838.07            0   -127403.99   -658.45988    75.663461    80.928777    76.236895    4.2599542    179.65793    65150.499 
  145000    600.40289   -128847.22            0   -127409.84   -591.01178    75.663461    80.928777    76.236895    4.4176979    184.18585    65304.117 
  146000    602.62769    -128831.3            0    -127388.6   -584.67306    75.663461    80.928777    76.236895    4.4281229    188.31297    65311.849 
  147000    604.46044   -128816.67            0   -127369.57   -1120.0221    75.663461    80.928777    76.236895    4.8002327    192.24406    65252.544 
  148000    600.65291   -128831.83            0   -127393.85   -805.67707    75.663461    80.928777    76.236895    4.3664991    196.29584     65235.65 
  149000    598.74846   -128836.01            0   -127402.59   -1013.1052    75.663461    80.928777    76.236895    3.9253603    200.19392    65169.251 
  150000    607.99844   -128842.86            0    -127387.3   -1053.4197    75.663461    80.928777    76.236895    4.1642914    204.19586    65138.479 
  151000    599.61681   -128838.02            0   -127402.52   -246.16956    75.663461    80.928777    76.236895    4.5505773    208.09295    65075.971 
  152000    607.64923   -128828.16            0   -127373.43   -660.71164    75.663461    80.928777    76.236895      4.27229    212.04699    65033.182 
  153000    595.89054   -128833.92            0   -127407.34   -843.70006    75.663461    80.928777    76.236895    4.0437417    216.24027    65063.842 
  154000    596.85429   -128850.11            0   -127421.22   -921.75849    75.663461    80.928777    76.236895    4.7025368    220.77357    65193.619 
  155000    597.22213   -128841.79            0   -127412.02   -614.93156    75.663461    80.928777    76.236895    4.1914156    225.23434    65297.484 
  156000    602.18955   -128850.33            0   -127408.68   -1194.8666    75.663461    80.928777    76.236895    4.4965608    229.23777    65267.268 
  157000    603.65945   -128849.18            0   -127404.01   -415.89418    75.663461    80.928777    76.236895    4.5611329    233.10105    65198.772 
  158000    598.78852   -128839.85            0   -127406.34   -619.51015    75.663461    80.928777    76.236895    5.1440807    236.98327    65137.713 
  159000    591.96574   -128840.98            0    -127423.8   -802.92875    75.663461    80.928777    76.236895    4.1746966    240.83871    65071.355 
  160000    607.54482   -128846.57            0   -127392.09   -481.16558    75.663461    80.928777    76.236895    4.7799949    244.80461    65036.426 
  161000    603.62203      -128845            0   -127399.91   -886.56651    75.663461    80.928777    76.236895    4.0002794    248.69082    64981.689 
  162000    600.07521   -128835.19            0    -127398.6   -954.70688    75.663461    80.928777    76.236895    5.1262084    252.55631    64923.267 
  163000     588.6725   -128834.03            0   -127424.73   -771.75411    75.663461    80.928777    76.236895    4.2699096    256.78176    64957.633 
  164000    600.61971   -128845.88            0   -127407.98   -694.64569    75.663461    80.928777    76.236895     3.963045    261.25389    65052.218 
  165000    598.63571   -128845.95            0    -127412.8   -570.95097    75.663461    80.928777    76.236895    4.7191338    265.66727    65129.353 
  166000    598.66031   -128860.87            0   -127427.66   -355.31753    75.663461    80.928777    76.236895    4.0495658    269.59237    65086.135 
  167000    598.87337   -128841.99            0   -127408.27   -1012.9427    75.663461    80.928777    76.236895    4.1673037    273.49412    65038.535 
  168000    602.41258   -128832.35            0   -127390.16   -673.84565    75.663461    80.928777    76.236895    4.0305929    277.35157    64981.842 
  169000    600.49748   -128842.85            0   -127405.24   -765.32944    75.663461    80.928777    76.236895    4.1161352    281.22241    64929.772 
  170000    595.92077   -128843.24            0   -127416.59   -563.08944    75.663461    80.928777    76.236895     5.125688    285.20518     64904.55 
  171000    600.00744    -128839.7            0   -127403.27   -953.89859    75.663461    80.928777    76.236895     4.339123    289.10652    64861.659 
  172000    594.84823   -128840.21            0   -127416.12   -975.15259    75.663461    80.928777    76.236895    4.4314305    293.02943    64824.622 
  173000    598.51551   -128833.46            0   -127400.59   -800.83156    75.663461    80.928777    76.236895    4.6098046    297.18358    64838.945 
  174000      601.541   -128850.03            0   -127409.92   -717.96153    75.663461    80.928777    76.236895    4.4751528    301.66271    64922.708 
  175000    599.69432    -128841.4            0   -127405.72   -644.51862    75.663461    80.928777    76.236895    3.7872902    306.04509    64983.574 
  176000    601.04714   -128832.96            0   -127394.04   -728.90207    75.663461    80.928777    76.236895    4.6768801    310.02376    64958.136 
  177000     598.3019   -128858.05            0    -127425.7   -811.50078    75.663461    80.928777    76.236895    4.2535469    313.93723    64919.772 
  178000    602.81018   -128849.32            0   -127406.18   -482.11815    75.663461    80.928777    76.236895    5.0991745    317.88285    64888.856 
  179000    602.28599    -128830.1            0   -127388.21   -665.71151    75.663461    80.928777    76.236895    4.5470664    321.80768    64854.432 
  180000    599.19476   -128853.09            0    -127418.6   -896.22438    75.663461    80.928777    76.236895    3.9733301    325.64996    64804.342 
  181000    602.19217   -128833.02            0   -127391.35   -485.33051    75.663461    80.928777    76.236895    3.9863983    329.51216    64759.309 
  182000    606.03946   -128851.77            0    -127400.9   -953.27548    75.663461    80.928777    76.236895    4.4159705    333.51597    64742.771 
  183000    608.69644   -128848.08            0   -127390.84   -776.86969    75.663461    80.928777    76.236895    3.9242035    337.71287    64763.564 
  184000    602.56361   -128841.71            0   -127399.15   -1325.7558    75.663461    80.928777    76.236895    4.6018906    342.25343    64848.877 
  185000     598.7843   -128839.16            0   -127405.65   -548.55748    75.663461    80.928777    76.236895    4.9052312    346.56849    64889.854 
  186000    595.81225   -128854.16            0   -127427.77   -861.93033    75.663461    80.928777    76.236895    4.0354921    350.48493    64856.014 
  187000    596.08739   -128841.53            0   -127414.48   -957.73131    75.663461    80.928777    76.236895    4.0804175    354.37351    64817.766 
  188000    599.27557   -128828.06            0   -127393.37   -515.70971    75.663461    80.928777    76.236895    4.2584679    358.26679    64781.149 
  189000    593.59906   -128859.18            0   -127438.09    -759.0235    75.663461    80.928777    76.236895    4.5021187    362.20826    64753.884 
  190000    599.42455   -128842.36            0   -127407.32   -790.29229    75.663461    80.928777    76.236895    4.6379608    366.14285    64725.919 
  191000    595.69275   -128832.98            0   -127406.88   -792.52434    75.663461    80.928777    76.236895    3.9593739    370.07654    64698.327 
  192000    598.23165   -128845.82            0   -127413.63   -791.17119    75.663461    80.928777    76.236895    4.2187584    374.09272    64685.511 
  193000     599.6873   -128831.64            0   -127395.98   -1172.7066    75.663461    80.928777    76.236895    4.1358279    378.56845    64751.487 
  194000    602.16573   -128843.19            0   -127401.59   -573.82893    75.663461    80.928777    76.236895    4.2215586    383.09507    64824.577 
  195000    600.34878   -128853.71            0   -127416.46   -661.64721    75.663461    80.928777    76.236895    4.4806332    387.33885    64848.677 
  196000     608.7185   -128838.97            0   -127381.68   -915.25492    75.663461    80.928777    76.236895    4.8190995    391.24822    64816.788 
  197000    601.13902   -128854.34            0    -127415.2    -846.6348    75.663461    80.928777    76.236895    5.5993894    395.11003    64777.678 
  198000    602.28133   -128817.46            0   -127375.58   -772.22711    75.663461    80.928777    76.236895    4.6023371    399.05258    64752.389 
  199000    593.07397   -128824.51            0   -127404.68   -378.26912    75.663461    80.928777    76.236895    4.5363757    402.98214    64725.444 
  200000    607.99741   -128842.67            0    -127387.1   -393.68068    75.663461    80.928777    76.236895    4.4200986    406.83421     64686.64 
  201000    598.44954   -128853.47            0   -127420.77   -1317.3946    75.663461    80.928777    76.236895    4.3846519    410.82745    64670.749 
  202000    598.13868   -128837.16            0    -127405.2   -478.97095    75.663461    80.928777    76.236895    4.2919348    414.95203    64675.563 
  203000    596.11967   -128836.01            0   -127408.88   -393.08109    75.663461    80.928777    76.236895    4.0392944    419.48454    64743.163 
  204000    596.64401   -128857.85            0   -127429.47   -874.41311    75.663461    80.928777    76.236895    3.8511263    423.97107    64802.348 
  205000     603.8568   -128847.58            0   -127401.93   -526.53725    75.663461    80.928777    76.236895    4.2339516    427.97613    64787.434 
  206000    596.42065   -128848.97            0   -127421.13   -888.55568    75.663461    80.928777    76.236895    4.2781604    431.77982    64742.533 
  207000    599.87468   -128823.09            0   -127386.98   -1033.7938    75.663461    80.928777    76.236895    4.3678907    435.71062    64717.279 
  208000    596.65591   -128843.54            0   -127415.13   -1030.1422    75.663461    80.928777    76.236895       4.0459    439.56779    64681.587 
  209000    592.39033    -128841.9            0    -127423.7   -835.57476    75.663461    80.928777    76.236895    4.0030889    443.43841    64648.438 
  210000    605.57101   -128830.29            0   -127380.53   -1025.5131    75.663461    80.928777    76.236895    4.2476742    447.26469    64609.418 
  211000     595.5909   -128846.94            0   -127421.08   -847.50039    75.663461    80.928777    76.236895     3.955961     451.1909    64585.335 
  212000    602.08393   -128827.31            0    -127385.9   -559.49337    75.663461    80.928777    76.236895    4.9789708    455.20363    64573.886 
  213000    598.88536    -128861.1            0   -127427.36   -633.39447    75.663461    80.928777    76.236895    3.9170458     459.6674    64625.982 
  214000    602.98417   -128848.83            0   -127405.27    -637.2048    75.663461    80.928777    76.236895     4.639964     464.1163    64675.014 
  215000    604.19227   -128847.07            0   -127400.62   -538.59247    75.663461    80.928777    76.236895    4.4680827    468.12084    64661.735 
  216000     596.9164   -128841.21            0   -127412.17   -692.55758    75.663461    80.928777    76.236895    5.3203414    472.07568    64641.811 
  217000    601.45861   -128828.45            0   -127388.54   -563.51862    75.663461    80.928777    76.236895    4.0743124    475.96132    64612.767 
  218000    595.45946   -128835.85            0    -127410.3   -836.18883    75.663461    80.928777    76.236895    4.6648859    479.85603    64585.368 
  219000    598.14164   -128832.12            0   -127400.15   -882.33323    75.663461    80.928777    76.236895    4.3288625    483.74288    64557.316 
  220000    598.86766   -128814.58            0   -127380.88   -723.90112    75.663461    80.928777    76.236895    4.3119689    487.69954    64538.906 
  221000    599.02298      -128841            0   -127406.93   -591.92116    75.663461    80.928777    76.236895    4.2553532    491.52345    64503.314 
  222000    603.18541   -128853.73            0   -127409.69   -417.86764    75.663461    80.928777    76.236895    4.3536761    495.60693    64502.023 
  223000    606.40582   -128847.73            0   -127395.97   -517.35524    75.663461    80.928777    76.236895    5.5858207    500.05042    64547.159 
  224000     595.3483   -128848.79            0   -127423.51   -1086.4638    75.663461    80.928777    76.236895    3.8338527    504.51337    64593.986 
  225000    597.71593   -128847.19            0   -127416.24   -901.38688    75.663461    80.928777    76.236895    4.5025864    508.45296    64573.526 
  226000    599.84676   -128843.73            0   -127407.68   -952.05277    75.663461    80.928777    76.236895    4.0584753    512.43879    64559.153 
  227000    602.69176   -128825.95            0   -127383.09   -832.52343    75.663461    80.928777    76.236895    4.3124104    516.23579    64521.344 
  228000    596.84757   -128842.56            0   -127413.69   -960.56906    75.663461    80.928777    76.236895    4.3624372    520.12758     64495.82 
  229000    596.91841   -128840.73            0   -127411.69   -869.29858    75.663461    80.928777    76.236895    4.1179752    524.00052    64468.313 
  230000    605.37562   -128827.33            0   -127378.04   -890.43072    75.663461    80.928777    76.236895     4.143052    527.87373    64441.201 
  231000    601.25095    -128851.4            0   -127411.99   -400.61127    75.663461    80.928777    76.236895    3.9479162    531.85984     64428.12 
  232000    599.91023   -128851.34            0   -127415.14   -1119.1176    75.663461    80.928777    76.236895    4.2735829    535.98005    64431.299 
  233000    594.49683   -128837.82            0   -127414.58   -957.29688    75.663461    80.928777    76.236895    4.3603655    540.45636     64476.85 
  234000    602.87242   -128859.54            0   -127416.25   -1227.7387    75.663461    80.928777    76.236895    5.3525754    544.91693    64519.791 
  235000    600.83015   -128854.33            0   -127415.92   -416.69742    75.663461    80.928777    76.236895    4.4706249    548.88589    64504.256 
  236000    604.85598   -128839.35            0   -127391.31   -850.35945    75.663461    80.928777    76.236895    3.7741705    552.82703    64485.648 
  237000    604.58314   -128859.34            0   -127411.95   -1201.0605    75.663461    80.928777    76.236895     4.112791    556.71885    64461.541 
  238000    591.64638   -128852.05            0   -127435.63   -524.60101    75.663461    80.928777    76.236895    4.7509317    560.53114    64428.586 
  239000    602.43294   -128830.99            0   -127388.75   -669.70348    75.663461    80.928777    76.236895      4.25047    564.37223    64399.337 
  240000    597.74582   -128848.46            0   -127417.44   -705.49558    75.663461    80.928777    76.236895    3.8810018    568.27691    64377.656 
  241000    595.23383    -128826.1            0   -127401.09    -958.8261    75.663461    80.928777    76.236895    4.0268674    572.26038    64365.087 
  242000    603.30103   -128839.93            0   -127395.61   -716.78181    75.663461    80.928777    76.236895    4.7588561    576.43598    64374.097 
  243000    593.85253   -128840.69            0   -127418.99   -857.94809    75.663461    80.928777    76.236895    4.2086955    580.93512    64418.798 
  244000    598.89383   -128845.46            0    -127411.7   -1047.7926    75.663461    80.928777    76.236895    4.4415564    585.35792    64454.412 
  245000    599.75884   -128819.66            0   -127383.82   -728.63017    75.663461    80.928777    76.236895    4.6918587    589.30251    64437.182 
  246000    601.48804   -128840.46            0   -127400.48   -904.16383    75.663461    80.928777    76.236895    4.0489262    593.11769    64406.082 
  247000    597.84275   -128850.03            0   -127418.78   -343.80242    75.663461    80.928777    76.236895    4.2645107    596.95333    64377.559 
  248000    600.19816   -128844.31            0   -127407.42   -886.04147    75.663461    80.928777    76.236895    4.3082194    600.89418    64360.639 
  249000    599.71244   -128824.62            0   -127388.89   -527.84477    75.663461    80.928777    76.236895    4.3667381    604.74866    64334.705 
  250000    598.08035   -128841.46            0   -127409.64   -770.46938    75.663461    80.928777    76.236895    4.2856663    608.61881    64310.721 
  251000    603.56806   -128845.84            0   -127400.88   -614.87109    75.663461    80.928777    76.236895    4.2368948    612.50806    64289.009 
  252000    604.12563   -128845.25            0   -127398.96   -887.84652    75.663461    80.928777    76.236895    4.9801749    616.63485    64292.297 
  253000    596.84769   -128847.25            0   -127418.38   -435.79885    75.663461    80.928777    76.236895    4.2910348    621.08283    64328.756 
  254000    605.69161   -128835.66            0   -127385.62   -838.83225    75.663461    80.928777    76.236895    4.5962967    625.42099    64353.384 
  255000      598.266   -128852.95            0   -127420.69   -1206.0443    75.663461    80.928777    76.236895    4.7745192    629.36003    64336.837 
  256000    597.96178   -128835.07            0   -127403.54   -973.68353    75.663461    80.928777    76.236895    5.3606896    633.31218    64321.783 
  257000    598.50933   -128839.77            0   -127406.92   -1007.9951    75.663461    80.928777    76.236895    4.1173694    637.23162     64303.57 
  258000    598.71397   -128850.48            0   -127417.14   -1216.3585    75.663461    80.928777    76.236895    4.0274217    641.11014    64281.436 
  259000    603.57837   -128835.88            0   -127390.89   -987.97054    75.663461    80.928777    76.236895    4.3131018    645.00763     64261.42 
  260000    600.06661   -128844.65            0   -127408.07   -404.61496    75.663461    80.928777    76.236895    5.0663832    648.88222     64239.34 
  261000    602.35928   -128844.81            0   -127402.75   -562.94964    75.663461    80.928777    76.236895    4.3367319    652.75355    64217.164 
  262000    600.49064   -128851.48            0   -127413.89   -1024.9979    75.663461    80.928777    76.236895    4.5081978    656.93221    64225.261 
  263000    599.93672   -128831.82            0   -127395.55   -902.55017    75.663461    80.928777    76.236895    4.5946037    661.41629    64262.882 
  264000     604.8123   -128837.16            0   -127389.22    -764.7081    75.663461    80.928777    76.236895    4.3707406    665.84083     64294.24 
  265000     599.3947    -128848.5            0   -127413.54   -1025.8347    75.663461    80.928777    76.236895    3.9650606    669.74888    64275.597 
  266000    600.58596    -128834.9            0   -127397.08   -520.72259    75.663461    80.928777    76.236895    3.7380635    673.66784    64258.172 
  267000      596.907   -128864.43            0   -127435.42   -767.66931    75.663461    80.928777    76.236895    5.1323492    677.61851    64243.916 
  268000    597.70296   -128841.96            0   -127411.04   -551.22866    75.663461    80.928777    76.236895    4.7943025    681.57974    64230.777 
  269000    598.35871      -128860            0   -127427.52   -528.74319    75.663461    80.928777    76.236895    4.5295714    685.56731    64220.214 
  270000    597.97189   -128840.78            0   -127409.22    -585.8191    75.663461    80.928777    76.236895    4.1107783    689.45826    64200.731 
  271000    602.32825   -128850.85            0   -127408.86   -614.61659    75.663461    80.928777    76.236895    4.4760922    693.53245    64198.393 
  272000    600.28896    -128848.5            0   -127411.39   -404.68897    75.663461    80.928777    76.236895    4.1290224    697.87988    64221.179 
  273000    597.16441   -128852.76            0   -127423.13   -564.47912    75.663461    80.928777    76.236895    3.8587809    702.42444    64261.686 
  274000    600.07932   -128845.25            0   -127408.64   -747.00205    75.663461    80.928777    76.236895    3.7859267    706.60559    64268.621 
  275000    606.70034   -128859.59            0   -127407.13   -912.68012    75.663461    80.928777    76.236895    4.0932281    710.57044     64255.87 
  276000      597.028   -128860.25            0   -127430.95   -541.98512    75.663461    80.928777    76.236895    3.9825745    714.48981    64239.129 
  277000    597.83568   -128844.15            0   -127412.92   -534.11248    75.663461    80.928777    76.236895    3.9586344    718.43953    64225.247 
  278000    600.61502   -128862.35            0   -127424.46    -374.9477    75.663461    80.928777    76.236895    4.4212006    722.46415    64218.134 
  279000    597.09527   -128841.86            0    -127412.4   -694.23241    75.663461    80.928777    76.236895    4.1081792    726.45249    64207.848 
  280000    608.96319   -128852.55            0   -127394.67   -754.25049    75.663461    80.928777    76.236895    3.9556156    730.39368    64193.489 
  281000    592.16783   -128851.06            0    -127433.4   -742.83514    75.663461    80.928777    76.236895    4.6540484    734.34644    64180.256 
  282000    601.28565    -128856.9            0    -127417.4   -679.20072    75.663461    80.928777    76.236895    4.1186378    738.68926    64201.026 
  283000    599.87168   -128849.65            0   -127413.54    -814.8179    75.663461    80.928777    76.236895    3.8232551     743.2451    64239.933 
  284000    595.40959   -128848.18            0   -127422.75    -346.2897    75.663461    80.928777    76.236895    4.2790604    747.30965    64236.138 
  285000    593.43684   -128841.39            0   -127420.69   -924.16903    75.663461    80.928777    76.236895    3.9198726     751.3167    64227.425 
  286000    596.27779   -128854.38            0   -127426.88   -153.85328    75.663461    80.928777    76.236895    3.7707074     755.2015    64208.368 
  287000    594.84366   -128846.32            0   -127422.24   -826.15576    75.663461    80.928777    76.236895    4.2752864    759.03745    64185.344 
  288000    602.47133    -128831.8            0   -127389.46   -274.89701    75.663461    80.928777    76.236895    5.4098316    762.90211    64164.937 
  289000    593.35598   -128848.94            0   -127428.43   -543.41301    75.663461    80.928777    76.236895    4.3821915    766.81992    64149.152 
  290000    591.87756   -128833.84            0   -127416.87   -663.43722    75.663461    80.928777    76.236895    4.6728301    770.80751    64139.299 
  291000    599.40245   -128846.86            0   -127411.88    -547.7033    75.663461    80.928777    76.236895    4.2548934    774.90418    64138.535 
  292000    602.49991   -128864.79            0   -127422.39   -657.23503    75.663461    80.928777    76.236895    4.0009954    779.46043    64175.576 
  293000     599.5259   -128852.72            0   -127417.44   -247.80848    75.663461    80.928777    76.236895    3.9085698    783.93724    64205.678 
  294000    599.28853   -128850.71            0   -127415.99   -317.80625    75.663461    80.928777    76.236895    3.6513986    787.99892    64201.602 
  295000    599.75182   -128849.94            0   -127414.12   -1006.4887    75.663461    80.928777    76.236895    4.3277006     791.8429    64179.882 
  296000     596.3097    -128865.5            0   -127437.92   -710.07016    75.663461    80.928777    76.236895    4.3449334    795.67384    64157.293 
  297000    598.88152   -128854.58            0   -127420.84   -523.15065    75.663461    80.928777    76.236895    4.4354995    799.61956    64144.101 
  298000    601.32955   -128850.33            0   -127410.73   -761.27189    75.663461    80.928777    76.236895    5.5257686    803.41207    64118.776 
  299000    597.61808   -128855.14            0   -127424.42   -664.92859    75.663461    80.928777    76.236895     4.201659    807.28566    64100.104 
  300000    600.82927    -128850.2            0    -127411.8   -634.12849    75.663461    80.928777    76.236895    4.0744211    811.08343    64075.591 
  301000    600.30995    -128839.9            0   -127402.74   -851.39428    75.663461    80.928777    76.236895    4.5253839    815.17452     64074.34 
  302000    593.41742   -128850.67            0   -127430.02   -646.47921    75.663461    80.928777    76.236895    4.4689795    819.58922    64098.369 
  303000    596.44109   -128851.34            0   -127423.44   -1069.3332    75.663461    80.928777    76.236895    4.1600106    824.15629    64133.975 
  304000    598.72797   -128860.68            0   -127427.31   -672.35798    75.663461    80.928777    76.236895    5.3581594    828.16146    64125.679 
  305000    606.82146   -128871.53            0   -127418.78   -1120.6223    75.663461    80.928777    76.236895    4.4104829    832.02436    64106.463 
  306000    599.38719   -128852.36            0   -127417.41     -553.547    75.663461    80.928777    76.236895    4.4487488    835.88606    64087.303 
  307000    599.16228   -128851.85            0   -127417.44   -706.09495    75.663461    80.928777    76.236895    4.1066018    839.77893     64070.67 
  308000    596.10124   -128835.73            0   -127408.64   -697.09291    75.663461    80.928777    76.236895     4.303677     843.7117    64057.189 
  309000    602.56673   -128847.08            0   -127404.51   -776.94415    75.663461    80.928777    76.236895    4.9082072    847.61027    64041.214 
  310000    602.18213   -128861.11            0   -127419.47   -780.43693    75.663461    80.928777    76.236895    4.2072172    851.51465    64025.792 
  311000    604.25586   -128853.16            0   -127406.55   -650.24544    75.663461    80.928777    76.236895    3.6764311    855.56571    64021.455 
  312000     604.5615   -128837.01            0   -127389.67   -453.55024    75.663461    80.928777    76.236895    4.1780982    860.04674    64049.141 
  313000    591.10482   -128833.29            0   -127418.17   -577.62928    75.663461    80.928777    76.236895    4.7402623    864.51204     64075.36 
  314000    606.47443   -128850.05            0   -127398.13   -826.99278    75.663461    80.928777    76.236895    4.3536389    868.52817    64068.157 
  315000     597.7372   -128836.88            0   -127405.88   -668.89371    75.663461    80.928777    76.236895    4.4458556    872.39831    64050.267 
  316000     602.8463    -128850.1            0   -127406.87   -196.44854    75.663461    80.928777    76.236895    4.1010084    876.24324    64030.663 
  317000     600.6479   -128850.38            0   -127412.41   -646.02861    75.663461    80.928777    76.236895    4.8670747    880.14682    64015.471 
  318000    601.92303   -128853.73            0   -127412.71   -230.90477    75.663461    80.928777    76.236895    4.2128211    884.05834    64000.957 
  319000    602.88726   -128854.58            0   -127411.25   -764.42558    75.663461    80.928777    76.236895    4.8393826    887.98503    63987.634 
  320000    603.58054   -128862.46            0   -127417.47   -399.79237    75.663461    80.928777    76.236895    4.4303909    891.88469    63972.457 
  321000    602.73918   -128843.11            0   -127400.14   -998.73051    75.663461    80.928777    76.236895     3.848542    896.06366    63977.324 
  322000     599.0404   -128845.39            0   -127411.27   -354.45937    75.663461    80.928777    76.236895     4.938805    900.47345    63998.514 
  323000    592.67883   -128850.69            0    -127431.8   -535.10118    75.663461    80.928777    76.236895    5.0273481    904.94509    64023.851 
  324000    596.80612   -128832.56            0   -127403.79   -300.84968    75.663461    80.928777    76.236895    4.4110731    908.92022    64013.953 
  325000    605.73773   -128847.01            0   -127396.85   -835.26872    75.663461    80.928777    76.236895    5.1505865    912.81505    63998.478 
  326000    594.40465    -128846.8            0   -127423.78    -893.8858    75.663461    80.928777    76.236895    4.1534825    916.80781     63989.94 
  327000    592.91499   -128850.01            0   -127430.55   -1270.0243    75.663461    80.928777    76.236895    4.6096484    920.74837    63977.815 
  328000    592.90253   -128835.78            0   -127416.36   -943.21859    75.663461    80.928777    76.236895    4.1561484    924.66344    63963.999 
  329000    607.10699   -128861.77            0   -127408.33   -1082.9469    75.663461    80.928777    76.236895    4.1668399     928.5981    63951.618 
  330000    599.32424   -128836.28            0   -127401.48   -570.00245    75.663461    80.928777    76.236895    3.7598398    932.54203    63939.947 
  331000    601.97018   -128849.85            0   -127408.72   -540.61272    75.663461    80.928777    76.236895      4.88148    936.79532     63949.46 
  332000    590.91823   -128846.24            0   -127431.56   -861.68387    75.663461    80.928777    76.236895    4.1974414    941.31576    63977.012 
  333000    601.86398   -128842.98            0    -127402.1   -353.23582    75.663461    80.928777    76.236895    3.9596181    945.65729    63992.183 
  334000    598.25059   -128851.67            0   -127419.44   -775.35229    75.663461    80.928777    76.236895    5.0898292    949.55808    63977.491 
  335000    601.22794   -128853.25            0   -127413.89   -820.76077    75.663461    80.928777    76.236895    3.9676857    953.52093    63967.053 
  336000    596.01072   -128849.19            0   -127422.32   -803.46079    75.663461    80.928777    76.236895    4.4856497    957.42897     63953.01 
  337000    601.67987   -128853.36            0   -127412.93   -948.37258    75.663461    80.928777    76.236895     4.572637     961.4931    63949.434 
  338000    602.05761   -128844.74            0    -127403.4   -1058.1289    75.663461    80.928777    76.236895    4.7454276    965.44473    63938.403 
  339000    591.55469   -128850.33            0   -127434.14   -944.86467    75.663461    80.928777    76.236895    4.2062891    969.30928    63921.689 
  340000     603.1765   -128849.86            0   -127405.84   -305.27745    75.663461    80.928777    76.236895    4.0123303    973.22121    63908.193 
  341000    600.68914   -128852.22            0   -127414.15   -771.99729    75.663461    80.928777    76.236895    4.5652958    977.53402     63920.99 
  342000     587.9411   -128869.26            0   -127461.71    -861.1616    75.663461    80.928777    76.236895    4.0679055    981.97455    63941.962 
  343000    599.88957   -128865.68            0   -127429.53   -707.63184    75.663461    80.928777    76.236895    4.8037379    986.32553    63956.919 
  344000    594.90209   -128847.45            0   -127423.24   -773.80118    75.663461    80.928777    76.236895     4.203453    990.20615    63941.345 
  345000    595.31008    -128849.6            0   -127424.41   -1106.5002    75.663461    80.928777    76.236895    4.4748786    994.04208    63922.992 
  346000    605.83041   -128843.73            0   -127393.36   -527.20521    75.663461    80.928777    76.236895    4.4831054    997.88989    63905.518 
  347000    595.60362   -128851.58            0   -127425.69   -723.57666    75.663461    80.928777    76.236895    4.1868006    1001.7675    63890.056 
  348000    602.30519   -128861.71            0   -127419.78   -809.58412    75.663461    80.928777    76.236895    3.7991421    1005.6052    63872.152 
  349000     603.4771   -128840.49            0   -127395.75   -913.70631    75.663461    80.928777    76.236895    4.5546905     1009.397    63851.457 
  350000    600.22249   -128862.74            0   -127425.79   -1128.5696    75.663461    80.928777    76.236895    4.4668938    1013.3366    63840.204 
  351000    596.66154   -128850.54            0   -127422.11   -829.50866    75.663461    80.928777    76.236895    4.0025936    1017.6654    63853.438 
  352000    602.14025   -128870.04            0    -127428.5   -601.93623    75.663461    80.928777    76.236895    3.9939022    1022.1545    63876.544 
  353000    598.76559   -128852.45            0   -127418.98   -503.60015    75.663461    80.928777    76.236895    4.1654622    1026.4273     63885.97 
  354000    599.63293   -128869.48            0   -127433.95    -431.0025    75.663461    80.928777    76.236895    4.0396231    1030.2956    63870.215 
  355000    599.70651   -128861.13            0   -127425.42   -478.78925    75.663461    80.928777    76.236895    4.5917471    1034.1524    63853.842 
  356000    594.36014   -128850.91            0   -127427.99   -504.69514    75.663461    80.928777    76.236895    4.4390315    1038.0548    63840.371 
  357000    599.82874   -128846.39            0   -127410.39   -368.32233    75.663461    80.928777    76.236895    4.2956396    1041.9539     63826.77 
  358000    598.03884   -128849.63            0   -127417.91   -605.50181    75.663461    80.928777    76.236895    4.3303834    1045.8507    63813.106 
  359000    601.90207   -128822.91            0   -127381.94   -755.65399    75.663461    80.928777    76.236895      4.29099    1049.7092    63797.191 
  360000    600.36612   -128843.48            0   -127406.19   -686.72511    75.663461    80.928777    76.236895    4.0586176     1053.665    63787.258 
  361000     593.6859   -128864.44            0   -127443.14   -797.93181    75.663461    80.928777    76.236895    4.3186829    1057.9212    63795.489 
  362000     600.9657   -128848.29            0   -127409.56   -496.00694    75.663461    80.928777    76.236895    4.5931454    1062.4485    63819.905 
  363000    603.24275   -128844.04            0   -127399.86   -704.05088    75.663461    80.928777    76.236895    5.0207048    1066.6442    63824.256 
  364000    602.45619   -128861.27            0   -127418.97   -740.89191    75.663461    80.928777    76.236895    4.7300454    1070.5323    63810.211 
  365000     597.6179   -128849.56            0   -127418.85   -1120.2026    75.663461    80.928777    76.236895    4.7281035    1074.3511    63792.132 
  366000    602.99701   -128833.46            0   -127389.87   -816.08711    75.663461    80.928777    76.236895    4.2399851    1078.2073    63776.365 
  367000    594.90861   -128846.57            0   -127422.34   -950.98868    75.663461    80.928777    76.236895    4.8002513    1082.0943    63762.507 
  368000    594.74115   -128846.62            0   -127422.79   -757.88946    75.663461    80.928777    76.236895    4.2650739    1086.0041    63750.059 
  369000    605.40378   -128843.95            0    -127394.6   -930.44408    75.663461    80.928777    76.236895    3.7965456    1089.9922     63742.26 
  370000    598.99196   -128849.61            0   -127415.61   -558.19541    75.663461    80.928777    76.236895    4.4277617    1094.0148    63736.492 
  371000     600.5668   -128850.27            0   -127412.49   -608.35606    75.663461    80.928777    76.236895    4.5791268    1098.4182    63752.838 
  372000    598.17827   -128850.68            0   -127418.62   -655.79194    75.663461    80.928777    76.236895    3.8451562    1102.9975    63779.207 
  373000     596.7435   -128849.06            0   -127420.44   -650.11143    75.663461    80.928777    76.236895    4.6876485    1107.1538    63780.981 
  374000    595.49655   -128845.86            0   -127420.23   -933.39095    75.663461    80.928777    76.236895    4.5215144      1111.01    63765.484 
  375000    602.87933   -128835.15            0   -127391.84   -450.27384    75.663461    80.928777    76.236895    3.9727981    1114.9271    63753.557 
  376000    598.71436   -128839.36            0   -127406.02   -474.73443    75.663461    80.928777    76.236895    4.7863692    1118.7618    63736.995 
  377000    606.51081   -128871.98            0   -127419.97   -782.24275    75.663461    80.928777    76.236895    3.8956779    1122.5768    63719.405 
  378000    598.71515   -128869.88            0   -127436.54   -895.48681    75.663461    80.928777    76.236895    4.9493982    1126.3558    63699.878 
  379000    604.70762   -128847.93            0   -127400.25   -1046.8272    75.663461    80.928777    76.236895    3.9887044    1130.2214    63685.344 
  380000    604.02072   -128831.76            0   -127385.71   -261.63043    75.663461    80.928777    76.236895     4.697664    1134.1447    63674.126 
  381000    601.11688   -128854.08            0   -127414.99   -980.98283    75.663461    80.928777    76.236895    4.3229721    1138.4436    63683.969 
  382000    602.82491    -128848.6            0   -127405.43   -969.49003    75.663461    80.928777    76.236895    5.2264971    1142.9445    63704.971 
  383000    598.91201   -128851.19            0   -127417.38   -1063.2523    75.663461    80.928777    76.236895    4.4800429    1147.1381    63708.725 
  384000    602.10228   -128839.54            0   -127398.09   -705.22953    75.663461    80.928777    76.236895    3.6137223    1150.9789    63692.904 
  385000    593.44522   -128838.17            0   -127417.45   -529.02702    75.663461    80.928777    76.236895    4.1114571    1154.9728    63685.603 
  386000    599.73042   -128843.96            0   -127408.19   -832.20159    75.663461    80.928777    76.236895    5.1618788    1158.8245    63670.517 
  387000    599.60881   -128839.27            0   -127403.79   -876.86347    75.663461    80.928777    76.236895    4.4240925    1162.6688    63655.105 
  388000    597.86443   -128838.87            0   -127407.56   -521.82172    75.663461    80.928777    76.236895     5.363429    1166.4746    63637.667 
  389000    601.16643   -128845.96            0   -127406.75   -824.31042    75.663461    80.928777    76.236895    3.9840633    1170.3022    63621.517 
  390000    598.14705   -128843.28            0    -127411.3   -834.75998    75.663461    80.928777    76.236895    3.9886609     1174.177    63608.003 
  391000    597.64028   -128840.24            0   -127409.48   -794.69667    75.663461    80.928777    76.236895    4.2836941      1178.61    63624.686 
  392000    602.98725   -128847.04            0   -127403.47   -905.98121    75.663461    80.928777    76.236895    4.2463907     1183.114    63645.052 
  393000    598.10805   -128848.15            0   -127416.26   -760.92115    75.663461    80.928777    76.236895    4.3110633    1187.1649    63640.952 
  394000    601.48234    -128840.7            0   -127400.73   -778.30673    75.663461    80.928777    76.236895    4.7439408    1191.0615    63628.611 
  395000    601.65161   -128856.64            0   -127416.27   -1052.0183    75.663461    80.928777    76.236895    4.1105706    1195.0477    63621.099 
  396000    607.88406   -128839.24            0   -127383.95   -891.94991    75.663461    80.928777    76.236895    4.2269404    1198.9071    63606.883 
  397000    601.28944   -128844.09            0   -127404.58    -852.6207    75.663461    80.928777    76.236895    4.1616691    1202.8262     63595.89 
  398000    596.06556   -128830.11            0   -127403.11   -846.10363    75.663461    80.928777    76.236895    4.3634557    1206.6744    63581.211 
  399000    595.86687   -128855.61            0   -127429.09   -1089.3134    75.663461    80.928777    76.236895    4.8128958    1210.5673    63568.952 
  400000    605.81423   -128850.67            0   -127400.34   -943.91572    75.663461    80.928777    76.236895    4.3171386    1214.4711    63557.323 
  401000    602.30402   -128841.06            0   -127399.13   -752.00944    75.663461    80.928777    76.236895    4.4380443    1218.9395    63575.186 
  402000    597.61446   -128850.63            0   -127419.92    -1190.478    75.663461    80.928777    76.236895    4.3823483    1223.3664    63590.747 
  403000    595.34384   -128834.99            0   -127409.72   -804.80188    75.663461    80.928777    76.236895    4.6017166    1227.4368     63587.71 
  404000    599.28134    -128823.5            0    -127388.8   -1333.7321    75.663461    80.928777    76.236895    4.5641383    1231.2918    63573.542 
  405000    601.35528   -128839.61            0   -127399.95   -952.52964    75.663461    80.928777    76.236895     4.438372    1235.2377    63564.117 
  406000    603.77906   -128858.55            0   -127413.09   -1288.4196    75.663461    80.928777    76.236895    4.5402684    1239.1451    63552.756 
  407000    596.66935   -128828.64            0   -127400.19   -935.10162    75.663461    80.928777    76.236895    4.0327599    1243.1247    63545.133 
  408000    596.84956   -128854.06            0   -127425.19   -1272.7047    75.663461    80.928777    76.236895     4.550241    1247.0077    63532.615 
  409000    603.50938   -128848.38            0   -127403.57   -752.53469    75.663461    80.928777    76.236895    4.3158246    1250.8637    63518.777 
  410000     601.7193   -128833.77            0   -127393.23   -948.97654    75.663461    80.928777    76.236895    4.1604755    1254.9212    63515.204 
  411000    599.84304   -128843.27            0   -127407.23   -1079.7834    75.663461    80.928777    76.236895    3.8393972    1259.3537    63530.545 
  412000      602.919   -128845.59            0   -127402.18   -849.71024    75.663461    80.928777    76.236895    3.8120532    1263.8388    63548.409 
  413000    599.58594   -128832.88            0   -127397.46   -1051.5146    75.663461    80.928777    76.236895    3.9369905    1267.9549    63547.633 
  414000    598.40845   -128841.43            0   -127408.82     -730.438    75.663461    80.928777    76.236895    4.3309608    1271.8364    63535.114 
  415000    598.32475   -128854.16            0   -127421.75     -1157.75    75.663461    80.928777    76.236895    4.7848984    1275.6864    63521.081 
  416000     600.7576   -128843.68            0   -127405.45    -1167.691    75.663461    80.928777    76.236895    4.1167012    1279.6101    63510.776 
  417000    602.49038   -128857.43            0   -127415.05   -1057.7511    75.663461    80.928777    76.236895    5.5669604     1283.521    63499.871 
  418000    602.34609   -128836.99            0   -127394.96   -281.96228    75.663461    80.928777    76.236895    3.8698123    1287.3906    63486.981 
  419000    596.99559   -128858.64            0   -127429.41   -1430.2412    75.663461    80.928777    76.236895    4.3762757    1291.2533    63473.803 
  420000    602.85591   -128835.96            0    -127392.7   -706.73545    75.663461    80.928777    76.236895    4.5760897    1295.3215    63470.753 
  421000    608.84101   -128861.44            0   -127403.86   -1147.2765    75.663461    80.928777    76.236895    3.8832501    1299.7999    63487.734 
  422000    599.70243   -128826.19            0   -127390.49   -1276.4313    75.663461    80.928777    76.236895    4.7416617    1304.2692     63504.14 
  423000    604.91773   -128829.27            0   -127381.08   -1037.5498    75.663461    80.928777    76.236895    3.8678547    1308.3525    63501.679 
  424000    596.14757   -128848.85            0   -127421.65   -1275.2226    75.663461    80.928777    76.236895    4.4082043    1312.2181    63488.678 
  425000    597.25392   -128849.66            0   -127419.82   -792.51925    75.663461    80.928777    76.236895    4.7785121     1316.047    63473.961 
  426000    599.11782   -128845.61            0   -127411.31   -1146.9443    75.663461    80.928777    76.236895    4.6760837    1319.9793     63464.28 
  427000    594.96476   -128830.52            0   -127406.16   -902.39765    75.663461    80.928777    76.236895    4.5807279    1323.8472    63451.553 
  428000    599.36411   -128851.71            0   -127416.81   -659.78034    75.663461    80.928777    76.236895    3.5675601    1327.7596    63441.002 
  429000      601.932   -128848.88            0   -127407.84    -944.3406    75.663461    80.928777    76.236895    4.5313198    1331.6695    63430.373 
  430000    604.68404   -128841.31            0   -127393.68   -896.45984    75.663461    80.928777    76.236895    4.3019492    1335.7952    63430.034 
  431000    593.79605   -128840.09            0   -127418.52   -798.95307    75.663461    80.928777    76.236895     3.836228    1340.2007    63442.916 
  432000    607.07785   -128845.46            0    -127392.1   -329.97642    75.663461    80.928777    76.236895    3.9378859    1344.5767      63454.3 
  433000    597.71522   -128855.88            0   -127424.93   -1228.3348    75.663461    80.928777    76.236895    4.2287723    1348.5263    63445.531 
  434000     607.4139   -128848.89            0   -127394.72   -1049.2858    75.663461    80.928777    76.236895    4.2945898    1352.3915    63432.829 
  435000     599.6252   -128845.31            0   -127409.79   -819.22386    75.663461    80.928777    76.236895    4.5910124    1356.3085    63422.606 
  436000    600.97893   -128849.67            0   -127410.91    -1020.286    75.663461    80.928777    76.236895    3.8613458    1360.2152    63411.939 
  437000    596.63822   -128832.83            0   -127404.46   -765.86694    75.663461    80.928777    76.236895    5.4122597    1364.0557    63398.235 
  438000     599.1064    -128834.8            0   -127400.53   -369.63174    75.663461    80.928777    76.236895    4.4783678    1367.9673     63387.88 
  439000    601.26476   -128833.74            0    -127394.3   -466.30573    75.663461    80.928777    76.236895    4.4426641    1371.9178    63379.363 
  440000    603.87085   -128820.39            0    -127374.7   -474.31071    75.663461    80.928777    76.236895    4.1878115    1375.9989    63376.889 
  441000    603.32883   -128844.77            0   -127400.39   -658.69945    75.663461    80.928777    76.236895    4.2510992    1380.5719    63396.997 
  442000    596.91647    -128839.6            0   -127410.57   -1007.6622    75.663461    80.928777    76.236895    4.1286822    1385.0278    63411.596 
  443000    595.20652   -128831.44            0    -127406.5      -858.68    75.663461    80.928777    76.236895    3.9887418     1388.967    63402.498 
  444000    603.45354   -128843.98            0    -127399.3   -764.00582    75.663461    80.928777    76.236895    4.3883217    1392.8532    63391.018 
  445000    600.50611   -128847.67            0   -127410.04   -883.31314    75.663461    80.928777    76.236895    4.3319526    1396.7728    63381.095 
  446000    602.98252   -128823.56            0   -127380.01   -1134.2258    75.663461    80.928777    76.236895    4.4953617    1400.5578    63365.123 
  447000    601.42767   -128847.19            0   -127407.35   -1070.5969    75.663461    80.928777    76.236895    3.9179331    1404.3809    63350.936 
  448000    604.55076   -128827.66            0   -127380.35   -633.33428    75.663461    80.928777    76.236895    4.1433926    1408.2286    63337.914 
  449000    593.87429   -128826.19            0   -127404.44   -1113.1609    75.663461    80.928777    76.236895    3.6923085    1412.1767    63329.448 
  450000     603.2464   -128844.99            0    -127400.8   -696.63521    75.663461    80.928777    76.236895    4.7458425    1416.4243      63334.4 
  451000    604.70613   -128837.04            0   -127389.36   -1404.4623    75.663461    80.928777    76.236895    4.4171783     1420.834    63346.526 
  452000     597.5406   -128826.72            0   -127396.19   -1009.8504    75.663461    80.928777    76.236895    4.2577281     1425.351    63363.333 
  453000    602.59734   -128837.14            0    -127394.5   -661.83715    75.663461    80.928777    76.236895    4.5686864    1429.2546    63352.822 
  454000    595.64782   -128843.09            0   -127417.09   -562.49517    75.663461    80.928777    76.236895    6.2043777    1433.1476    63341.887 
  455000    601.21563   -128842.99            0   -127403.66   -1159.6738    75.663461    80.928777    76.236895    4.6760318    1437.0621    63331.933 
  456000    600.30316   -128837.95            0    -127400.8   -844.13045    75.663461    80.928777    76.236895    4.9005255    1440.9456    63320.655 
  457000    608.56961   -128840.74            0   -127383.81   -569.76313    75.663461    80.928777    76.236895     3.662166    1444.9167    63313.256 
  458000    603.20157    -128836.1            0   -127392.02   -1076.8376    75.663461    80.928777    76.236895    4.9298912    1448.7282    63298.901 
  459000    595.42341   -128843.66            0    -127418.2    -1007.032    75.663461    80.928777    76.236895    3.6730399    1452.6181    63288.022 
  460000    604.25263   -128854.66            0   -127408.06   -895.73235    75.663461    80.928777    76.236895    4.1923772    1456.8957    63294.025 
  461000    598.97342   -128855.79            0   -127421.83    -1049.542    75.663461    80.928777    76.236895    4.3324886    1461.3427     63307.31 
  462000    599.49489   -128844.69            0   -127409.48   -430.68719    75.663461    80.928777    76.236895    4.0759645    1465.6777    63315.657 
  463000      597.973   -128835.97            0   -127404.41   -876.14046    75.663461    80.928777    76.236895    4.6929622    1469.6355    63307.685 
  464000    597.84367   -128838.14            0   -127406.88   -1028.3162    75.663461    80.928777    76.236895    4.7746148    1473.6002    63300.034 
  465000    603.22802   -128851.14            0   -127406.99   -473.12602    75.663461    80.928777    76.236895    4.1344061    1477.4884    63289.125 
  466000    597.82776   -128834.77            0   -127403.55   -1002.5687    75.663461    80.928777    76.236895    4.6813061     1481.415    63279.898 
  467000    600.14306   -128853.11            0   -127416.35   -918.93487    75.663461    80.928777    76.236895    4.1783204    1485.2171    63265.394 
  468000     597.2546   -128843.48            0   -127413.64   -721.34546    75.663461    80.928777    76.236895    4.3110158     1489.108     63254.72 
  469000    591.92504   -128841.84            0   -127424.76   -812.01829    75.663461    80.928777    76.236895    4.2161614    1493.0778    63247.424 
  470000    597.39156   -128829.61            0   -127399.44   -891.56737    75.663461    80.928777    76.236895    4.7155866    1497.2976    63250.708 
  471000    600.77817   -128859.62            0   -127421.34   -1390.0623    75.663461    80.928777    76.236895    4.0963141    1501.7827    63265.127 
  472000    589.24551   -128844.54            0   -127433.87   -1318.8743    75.663461    80.928777    76.236895     4.269926    1506.0992    63272.363 
[...]
15980000    599.34597   -128872.58            0   -127437.73   -257.19641    75.663461    80.928777    76.236895    4.1354163    64331.375     486.1313 
15981000    605.42507   -128852.47            0   -127403.06   -863.18421    75.663461    80.928777    76.236895    5.1728383    64335.352    482.07965 
15982000    603.08451   -128867.62            0   -127423.82   -619.09751    75.663461    80.928777    76.236895    4.0447921    64339.547    478.02962 
15983000    600.09595   -128865.43            0   -127428.78   -471.72592    75.663461    80.928777    76.236895    3.7573536    64344.082    473.98209 
15984000    601.83829   -128850.32            0   -127409.51   -591.52847    75.663461    80.928777    76.236895    4.7836931    64348.441    469.93321 
15985000    597.98791   -128877.05            0   -127445.46   -972.11264    75.663461    80.928777    76.236895    4.1780203    64352.291    465.88061 
15986000     600.1026    -128839.2            0   -127402.53   -292.91894    75.663461    80.928777    76.236895    4.4897135    64356.188    461.82837 
15987000     598.7596   -128864.31            0   -127430.86   -880.71994    75.663461    80.928777    76.236895    4.2285089     64360.07    457.77604 
15988000    601.46979   -128857.16            0   -127417.23   -1032.6411    75.663461    80.928777    76.236895    4.0636364    64363.869    453.72314 
15989000    599.86957   -128857.15            0   -127421.04   -627.43069    75.663461    80.928777    76.236895    4.9867014    64367.748    449.67084 
15990000    600.25548   -128852.02            0   -127414.99   -655.40657    75.663461    80.928777    76.236895    4.1913387    64371.631    445.61859 
15991000    593.03053    -128867.2            0   -127447.47    -1191.321    75.663461    80.928777    76.236895    4.9932539    64375.671    441.56744 
15992000    601.11964   -128877.57            0   -127438.47   -525.85425    75.663461    80.928777    76.236895    4.1135231    64380.212    437.51969 
15993000    602.44158    -128862.8            0   -127420.54   -1193.6581    75.663461    80.928777    76.236895    4.2698318    64384.793    433.47215 
15994000    605.09554   -128857.94            0   -127409.32   -849.33944    75.663461    80.928777    76.236895    3.8656886     64388.92    429.42151 
15995000    608.96066    -128860.2            0   -127402.33   -534.17681    75.663461    80.928777    76.236895    3.9456071    64392.853    425.36958 
15996000    598.26748   -128844.88            0   -127412.61   -966.10031    75.663461    80.928777    76.236895    4.0830014    64396.846    421.31807 
15997000    592.94989   -128868.54            0      -127449    -1082.898    75.663461    80.928777    76.236895    4.3286966    64400.727    417.26583 
15998000    596.01174    -128870.8            0   -127443.94   -708.95665    75.663461    80.928777    76.236895    5.1364208    64404.506    413.21296 
15999000    598.03946    -128849.9            0   -127418.18   -731.46716    75.663461    80.928777    76.236895    4.6020419    64408.493    409.16144 
16000000     595.1127   -128858.57            0   -127433.85   -802.13416    75.663461    80.928777    76.236895    3.9288478    64412.426     405.1096 
16001000    600.59135   -128862.62            0   -127424.78   -739.81182    75.663461    80.928777    76.236895    3.8398159    64416.351    401.05772 
16002000     598.4536   -128890.11            0    -127457.4     -960.382    75.663461    80.928777    76.236895    4.0809457    64420.592     397.0078 
16003000    602.27952   -128874.91            0   -127433.04    -892.4948    75.663461    80.928777    76.236895    5.0026761    64425.207    392.96014 
16004000    602.36774   -128867.75            0   -127425.66   -1013.1842    75.663461    80.928777    76.236895    3.9860493    64429.343    388.90952 
16005000    599.42508   -128869.81            0   -127434.77   -603.82176    75.663461    80.928777    76.236895    4.5608059     64433.24    384.85745 
16006000    603.04619   -128861.29            0   -127417.58   -601.18595    75.663461    80.928777    76.236895     4.624763    64437.105    380.80522 
16007000    594.45873   -128864.24            0   -127441.08   -392.85688    75.663461    80.928777    76.236895    3.9418579    64440.992    376.75315 
16008000    591.86699   -128858.65            0    -127441.7   -724.62376    75.663461    80.928777    76.236895    5.5492792    64444.908    372.70125 
16009000    595.98638   -128862.01            0   -127435.21    -1049.862    75.663461    80.928777    76.236895     4.299205    64448.878    368.64969 
16010000    603.38499   -128847.05            0   -127402.53   -558.02318    75.663461    80.928777    76.236895    3.8310832    64452.805    364.59789 
16011000    599.25141   -128856.49            0   -127421.87   -997.80593    75.663461    80.928777    76.236895    4.6035807    64456.737    360.54614 
16012000    606.50919   -128857.67            0   -127405.67   -938.43764    75.663461    80.928777    76.236895    3.8964911    64461.057    356.49654 
16013000    597.78121   -128867.72            0   -127436.61     -322.978    75.663461    80.928777    76.236895    3.6593713    64465.467    352.44741 
16014000    607.10243   -128848.01            0   -127394.59   -508.42734    75.663461    80.928777    76.236895    4.5666956    64469.622    348.39685 
16015000    595.07484   -128852.89            0   -127428.26   -737.37019    75.663461    80.928777    76.236895    4.8693013    64473.541    344.34502 
16016000    599.70442   -128850.67            0   -127414.96   -748.38217    75.663461    80.928777    76.236895    4.2888206    64477.409    340.29293 
16017000    594.83669   -128865.74            0   -127441.68   -387.29406    75.663461    80.928777    76.236895    4.4579805    64481.338    336.24119 
16018000    605.98103   -128851.08            0   -127400.35   -494.75068    75.663461    80.928777    76.236895    4.7021909    64485.249    332.18937 
16019000    600.74109   -128851.98            0   -127413.79   -683.58646    75.663461    80.928777    76.236895    4.1975554    64489.055    328.13703 
16020000    599.77332   -128863.55            0   -127427.67   -891.66063    75.663461    80.928777    76.236895    3.9962897    64493.053    324.08569 
16021000    594.49518   -128860.87            0   -127437.63   -829.96436    75.663461    80.928777    76.236895    4.1483137    64497.044    320.03433 
16022000    605.15342   -128859.28            0   -127410.53   -966.15526    75.663461    80.928777    76.236895    3.9843775    64501.369     315.9846 
16023000     600.2135   -128860.31            0   -127423.38   -705.41972    75.663461    80.928777    76.236895    4.2579393    64505.939    311.93602 
16024000    601.37239   -128875.26            0   -127435.56   -519.92218    75.663461    80.928777    76.236895    3.7806998    64510.023    307.88506 
16025000    600.18989   -128864.93            0   -127428.06   -677.11346    75.663461    80.928777    76.236895    4.5478699    64513.824    303.83277 
16026000    595.81538   -128869.02            0   -127442.62   -500.14516    75.663461    80.928777    76.236895    3.9946898    64517.721    299.78095 
16027000    602.48448   -128867.14            0   -127424.77   -962.33805    75.663461    80.928777    76.236895    3.9113069    64521.575    295.72895 
16028000    599.14007   -128848.67            0   -127414.32   -623.28587    75.663461    80.928777    76.236895    4.7342942    64525.412     291.6769 
16029000    605.33338   -128859.11            0   -127409.92   -770.64884    75.663461    80.928777    76.236895    5.2770948    64529.314    287.62517 
16030000    598.72427   -128862.74            0   -127429.38   -712.96818    75.663461    80.928777    76.236895    4.2551696    64533.189    283.57333 
16031000    607.84574   -128851.76            0   -127396.56   -780.88597    75.663461    80.928777    76.236895    3.8741763    64537.137    279.52184 
16032000    601.95759   -128846.59            0   -127405.49   -497.91079    75.663461    80.928777    76.236895    4.2036118    64541.469      275.472 
16033000    600.58885   -128855.07            0   -127417.25   -1237.6756    75.663461    80.928777    76.236895    4.0970178    64546.001    271.42296 
16034000     596.1665   -128867.84            0    -127440.6   -1150.3154    75.663461    80.928777    76.236895    4.8529599     64550.01     267.3717 
16035000    603.52572    -128866.5            0   -127421.64   -628.33768    75.663461    80.928777    76.236895    4.3747242    64553.859    263.31979 
16036000     602.1972   -128864.52            0   -127422.84   -500.17651    75.663461    80.928777    76.236895     4.025656     64557.82    259.26835 
16037000    596.04024   -128849.75            0   -127422.82   -458.55945    75.663461    80.928777    76.236895     4.048198    64561.734    255.21674 
16038000    598.56624   -128860.19            0    -127427.2   -917.97869    75.663461    80.928777    76.236895    4.9589627    64565.624    251.16506 
16039000    596.36438   -128841.77            0   -127414.06   -513.56864    75.663461    80.928777    76.236895    3.8374389     64569.61    247.11376 
16040000    600.10605   -128851.11            0   -127414.44   -919.86889    75.663461    80.928777    76.236895    5.3987819    64573.439    243.06188 
16041000    600.55755    -128851.9            0   -127414.15   -850.17236    75.663461    80.928777    76.236895    4.2608192    64577.444    239.01068 
16042000     596.9199   -128861.43            0   -127432.39    -1032.689    75.663461    80.928777    76.236895    4.1970949    64581.939    234.96126 
16043000    604.43388   -128872.17            0   -127425.14   -1067.3795    75.663461    80.928777    76.236895    4.8668598    64586.468    230.91191 
16044000    592.65868    -128880.6            0   -127461.76   -666.75978    75.663461    80.928777    76.236895    4.2206883    64590.507    226.86079 
16045000    601.58905   -128868.58            0   -127428.35   -1013.6582    75.663461    80.928777    76.236895    4.1159344    64594.368    222.80905 
16046000    603.77263   -128861.79            0   -127416.34   -1147.3653    75.663461    80.928777    76.236895    4.2279293    64598.208    218.75726 
16047000    600.52083   -128874.67            0   -127437.01   -600.74297    75.663461    80.928777    76.236895     5.092732    64602.171    214.70591 
16048000    601.30155   -128851.71            0   -127412.17   -1077.1563    75.663461    80.928777    76.236895    4.1561323    64606.044    210.65427 
16049000     591.3611   -128848.84            0    -127433.1   -774.49094    75.663461    80.928777    76.236895    4.9629026    64610.005    206.60294 
16050000    600.30391   -128855.74            0    -127418.6   -1211.3964    75.663461    80.928777    76.236895     4.571016    64613.922    202.55148 
16051000    597.52494   -128856.98            0   -127426.49   -852.97091    75.663461    80.928777    76.236895    4.6151458    64618.047    198.50068 
16052000    596.60785    -128851.7            0    -127423.4   -647.95706    75.663461    80.928777    76.236895    4.8881119     64622.51    194.45088 
16053000     595.9726   -128874.33            0   -127447.56   -774.25546    75.663461    80.928777    76.236895    4.1775199    64626.948    190.40096 
16054000    603.58119   -128854.89            0    -127409.9   -875.73206    75.663461    80.928777    76.236895    4.5388557    64630.791    186.34928 
16055000    599.63228   -128851.39            0   -127415.85    -671.9139    75.663461    80.928777    76.236895    4.7355303    64634.735    182.29791 
16056000    605.38289   -128867.75            0   -127418.45   -728.65944    75.663461    80.928777    76.236895    4.5176873    64638.633    178.24642 
16057000    602.75608   -128859.56            0   -127416.55   -976.58128    75.663461    80.928777    76.236895    5.9359335    64642.601    174.19514 
16058000    601.58576    -128873.9            0   -127433.69   -993.42971    75.663461    80.928777    76.236895    4.1629024    64646.574    170.14388 
16059000    594.27443   -128855.93            0   -127433.22   -981.71286    75.663461    80.928777    76.236895    3.9961602    64650.456    166.09241 
16060000     597.5381   -128850.13            0   -127419.61   -660.97789    75.663461    80.928777    76.236895    4.0398181     64654.36      162.041 
16061000    598.49163   -128850.58            0   -127417.78   -821.22316    75.663461    80.928777    76.236895    4.4205556     64658.43    157.99002 
16062000    598.94922    -128862.2            0    -127428.3   -977.56838    75.663461    80.928777    76.236895    4.0731514    64662.899    153.93999 
16063000    595.98551   -128869.95            0   -127443.15    -1161.442    75.663461    80.928777    76.236895    4.2023769    64667.392    149.88996 
16064000     599.7267   -128874.13            0   -127438.37   -692.58047    75.663461    80.928777    76.236895    4.4068923    64671.353    145.83868 
16065000    601.16038   -128861.92            0   -127422.73   -727.62446    75.663461    80.928777    76.236895    3.9588384    64675.161    141.78707 
16066000    600.25897   -128857.27            0   -127420.23   -442.73476    75.663461    80.928777    76.236895    3.8669021    64679.012    137.73559 
16067000    598.60605   -128861.42            0   -127428.34   -422.93497    75.663461    80.928777    76.236895    4.0182242     64682.92    133.68425 
16068000    597.39694      -128853            0   -127422.82   -588.49795    75.663461    80.928777    76.236895    4.2343602    64686.829    129.63292 
16069000    592.16268   -128848.91            0   -127431.26   -936.57625    75.663461    80.928777    76.236895    4.7198513    64690.693    125.58153 
16070000    601.13609   -128855.64            0   -127416.51    -982.6491    75.663461    80.928777    76.236895    4.4481596    64694.639    121.53032 
16071000    602.25671   -128862.41            0   -127420.59   -620.53359    75.663461    80.928777    76.236895    4.0287236    64698.707    117.47934 
16072000    597.44745   -128849.53            0   -127419.23   -1032.6053    75.663461    80.928777    76.236895    4.1278064    64703.306    113.42929 
16073000    598.54412   -128849.58            0   -127416.65    -1111.498    75.663461    80.928777    76.236895    4.0293146    64707.791    109.37897 
16074000    601.43052   -128848.45            0   -127408.61    -789.5888    75.663461    80.928777    76.236895    4.7361165    64711.778     105.3278 
16075000    597.55682   -128852.89            0   -127422.33   -1296.4298    75.663461    80.928777    76.236895    4.2411372    64715.768    101.27663 
16076000    599.14715   -128869.28            0    -127434.9   -1073.6069    75.663461    80.928777    76.236895    4.3580389    64719.546    97.225156 
16077000    596.11559   -128859.97            0   -127432.85   -1313.0026    75.663461    80.928777    76.236895    4.3198999    64723.504    93.173974 
16078000    606.71151   -128849.89            0   -127397.41   -724.98142    75.663461    80.928777    76.236895    4.1313709    64727.403    89.122723 
16079000    597.76277   -128843.57            0   -127412.51   -1083.6335    75.663461    80.928777    76.236895    4.0940056     64731.34     85.07154 
16080000    598.43447   -128868.21            0   -127435.54   -992.97132    75.663461    80.928777    76.236895    4.3679155    64735.196    81.020271 
16081000    597.69041   -128866.59            0    -127435.7   -807.12586    75.663461    80.928777    76.236895    4.5643905    64739.363    76.969395 
16082000    601.68829   -128869.26            0    -127428.8   -624.94654    75.663461    80.928777    76.236895    4.8936558    64743.924    72.918948 
16083000    603.91406   -128852.44            0   -127406.65   -571.82356    75.663461    80.928777    76.236895    4.1381118    64748.294    68.868235 
16084000    606.88355   -128864.39            0   -127411.49   -916.71057    75.663461    80.928777    76.236895    4.3106287    64752.346    64.817164 
16085000    597.40683   -128858.82            0   -127428.61   -804.00402    75.663461    80.928777    76.236895    3.9294215    64756.279     60.76598 
16086000    596.46091   -128853.81            0   -127425.86   -632.15631    75.663461    80.928777    76.236895    4.2362299    64760.234     56.71483 
16087000     600.2832   -128851.37            0   -127414.28    -700.5672    75.663461    80.928777    76.236895    5.3579764    64764.166    52.663674 
16088000     596.8982   -128869.75            0   -127440.76   -533.54451    75.663461    80.928777    76.236895    4.6713196    64768.032    48.612484 
16089000    601.23318    -128836.2            0   -127396.84   -796.51869    75.663461    80.928777    76.236895    3.7477217    64772.051    44.561421 
16090000    600.37538   -128859.77            0   -127422.46   -839.84211    75.663461    80.928777    76.236895    4.6324222    64775.873    40.510239 
16091000    600.15956    -128849.7            0   -127412.91   -925.10445    75.663461    80.928777    76.236895    4.2319145    64780.078    36.459302 
16092000    598.17039   -128848.46            0   -127416.42   -420.21428    75.663461    80.928777    76.236895    4.0341915    64784.724    32.408566 
16093000    596.84477   -128841.74            0   -127412.88   -752.28591    75.663461    80.928777    76.236895    4.1385932    64789.009    28.357598 
16094000    600.87457   -128854.56            0   -127416.05   -665.61807    75.663461    80.928777    76.236895    5.0227275    64792.916    24.306458 
16095000    602.94151   -128864.13            0   -127420.67   -744.45212    75.663461    80.928777    76.236895     4.252503    64796.838    20.255342 
16096000    599.58098   -128839.53            0   -127404.12   -573.11697    75.663461    80.928777    76.236895    4.2001274    64800.732    16.204234 
16097000    598.51392   -128864.63            0   -127431.77   -266.18472    75.663461    80.928777    76.236895    3.7157584    64804.638    12.153148 
16098000    601.92377   -128858.48            0   -127417.46   -631.88735    75.663461    80.928777    76.236895    4.3218806    64808.507    8.1020761 
16099000    602.47313    -128875.9            0   -127433.56   -910.98265    75.663461    80.928777    76.236895    4.6132381    64812.405    4.0510285 
16100000    602.42859   -128856.14            0   -127413.91   -567.83274    75.663461    80.928777    76.236895    4.2633832    64816.413            0 
Loop time of 64816.4 on 160 procs for 16000000 steps with 18522 atoms

Performance: 21.328 ns/day, 1.125 hours/ns, 246.851 timesteps/s
98.8% CPU use with 160 MPI tasks x 1 OpenMP threads

MPI task timing breakdown:
Section |  min time  |  avg time  |  max time  |%varavg| %total
---------------------------------------------------------------
Pair    | 11311      | 11723      | 13112      | 205.0 | 18.09
Kspace  | 38118      | 39392      | 39973      | 119.9 | 60.78
Neigh   | 538.9      | 552.28     | 572.47     |  26.9 |  0.85
Comm    | 9981.4     | 10725      | 11211      | 260.8 | 16.55
Output  | 154.48     | 154.49     | 154.53     |   0.0 |  0.24
Modify  | 1756.4     | 2064.9     | 2582       | 470.1 |  3.19
Other   |            | 204.9      |            |       |  0.32

Nlocal:    115.763 ave 132 max 102 min
Histogram: 3 4 21 24 33 39 21 11 3 1
Nghost:    2953.19 ave 2988 max 2913 min
Histogram: 5 5 10 17 25 33 34 16 11 4
Neighs:    26345.9 ave 30728 max 22891 min
Histogram: 4 7 23 28 40 37 9 9 2 1

Total # of neighbors = 4215348
Ave neighs/atom = 227.586
Neighbor list builds = 558274
Dangerous builds = 0

# Final Commands
variable        final_energy equal etotal
print           "final_energy: ${'final_energy'}"
ERROR on proc 0: Substitution for illegal variable 'final_energy' (../input.cpp:553)
Last command: final_energy: ${'final_energy'
