********************************************************************************
*                       GENERAL UTILITY LATTICE PROGRAM                        *
*                                 Julian Gale                                  *
*                       Curtin Institute for Computation                       *
*                    School of Molecular and Life Sciences                     *
*                    Curtin University, Western Australia                      *
********************************************************************************
* Version = 5.2.0 * Last modified =   1st June 2020                            *
********************************************************************************
*  optimise     - perform optimisation run                                     *
*  conp         - constant pressure calculation                                *
*  property     - calculate properties for final geometry                      *
*  defect       - perform defect calculation after bulk run                    *
*  compare      - compare initial and final structures                         *
********************************************************************************

  Job Started  at 18:43.41  7th February   2022                               

  Number of CPUs =     1


  Total number of configurations input =      1

********************************************************************************
*  Input for Configuration =   1                                               *
********************************************************************************

  Formula = Sc2Cl6                                                      

  Number of irreducible atoms/shells =      14


  Total number atoms/shells =      14

  Dimensionality = 3               :  Bulk   



  Cartesian lattice vectors (Angstroms) :

        7.453000    0.000000    0.000000
        4.624520    5.844744    0.000000
        4.624520    2.237970    5.399307

  Cell parameters (Angstroms/Degrees):

  a =       7.4530    alpha =  51.6480
  b =       7.4530    beta  =  51.6480
  c =       7.4530    gamma =  51.6480

  Initial cell volume =         235.198534 Angs**3

  Temperature of configuration =   0.00     K 

  Pressure of configuration =         0.000 GPa 

  Fractional coordinates of asymmetric unit :

--------------------------------------------------------------------------------
   No.  Atomic       x           y          z         Charge      Occupancy
        Label      (Frac)      (Frac)     (Frac)        (e)         (Frac)  
--------------------------------------------------------------------------------
      1 Sc    c    0.333900    0.333900    0.333900     3.00000    1.000000    
      2 Sc    c    0.666100 *  0.666100 *  0.666100 *   3.00000    1.000000    
      3 Cl    c    0.073700 *  0.443900 *  0.705300 *   1.48500    1.000000    
      4 Cl    c    0.294700 *  0.926300 *  0.556100 *   1.48500    1.000000    
      5 Cl    c    0.443900 *  0.705300 *  0.073700 *   1.48500    1.000000    
      6 Cl    c    0.556100 *  0.294700 *  0.926300 *   1.48500    1.000000    
      7 Cl    c    0.705300 *  0.073700 *  0.443900 *   1.48500    1.000000    
      8 Cl    c    0.926300 *  0.556100 *  0.294700 *   1.48500    1.000000    
      9 Cl    s    0.073700 *  0.443900 *  0.705300 *  -2.48500    1.000000    
     10 Cl    s    0.294700 *  0.926300 *  0.556100 *  -2.48500    1.000000    
     11 Cl    s    0.443900 *  0.705300 *  0.073700 *  -2.48500    1.000000    
     12 Cl    s    0.556100 *  0.294700 *  0.926300 *  -2.48500    1.000000    
     13 Cl    s    0.705300 *  0.073700 *  0.443900 *  -2.48500    1.000000    
     14 Cl    s    0.926300 *  0.556100 *  0.294700 *  -2.48500    1.000000    
--------------------------------------------------------------------------------



********************************************************************************
*  General input information                                                   *
********************************************************************************

  Species output for all configurations : 

--------------------------------------------------------------------------------
  Species    Type    Atomic    Atomic    Charge       Radii (Angs)     Library
                     Number     Mass       (e)     Cova   Ionic  VDW   Symbol
--------------------------------------------------------------------------------
    Sc       Core       21      44.96   3.000000   1.440  0.000  2.150          
    Cl       Core       17      35.45   1.485000   0.990  0.000  1.650          
    Cl       Shell      17       0.00  -2.485000   0.990  0.000  1.650          
--------------------------------------------------------------------------------


  Lattice summation method               =    Ewald          (3-D)
                                         =    Parry          (2-D)
                                         =    Saunders et al (1-D)
  Accuracy factor for lattice sums       =   12.000


  Analytic derivatives to be used

  Time limit = Infinity

  Maximum range for interatomic potentials =    100000.000000 Angstroms

  General interatomic potentials :

--------------------------------------------------------------------------------
Atom  Types   Potential      Parameter       Value         Units   Cutoffs(Ang)
  1     2                                                            Min /  Max 
--------------------------------------------------------------------------------
Cl   c Cl   s Spring (c-s)  Spring k 2       36.070000    eV*Ang^-2 0.000  0.800
                            Spring k 4       0.0000000    eV*Ang^-4 
--------------------------------------------------------------------------------
Sc   c Cl   s Buckingham    Buckingham A     2456.2200    eV        0.000 12.000
                            Buckingham rho  0.31470000    Ang       
                            Buckingham C     0.0000000    eV*Ang^6  
--------------------------------------------------------------------------------
Cl   s Cl   s Buckingham    Buckingham A     1227.2000    eV        0.000 12.000
                            Buckingham rho  0.32100000    Ang       
                            Buckingham C     14.530000    eV*Ang^6  
--------------------------------------------------------------------------------

********************************************************************************
*  Output for configuration   1                                                *
********************************************************************************


  Components of energy : 

--------------------------------------------------------------------------------
  Interatomic potentials     =          10.39244711 eV    
  Monopole - monopole (real) =         -30.86300284 eV    
  Monopole - monopole (recip)=         -65.52201623 eV    
  Monopole - monopole (total)=         -96.38501907 eV    
--------------------------------------------------------------------------------
  Total lattice energy       =         -85.99257196 eV    
--------------------------------------------------------------------------------
  Total lattice energy       =           -8296.9687 kJ/(mole unit cells)
--------------------------------------------------------------------------------


  Number of variables =       45

  Maximum number of calculations  =          1000
  Maximum Hessian update interval =            10
  Maximum step size               =   1.000000000
  Maximum parameter tolerance     =   0.000010000
  Maximum function  tolerance     =   0.000010000
  Maximum gradient  tolerance     =   0.001000000
  Maximum gradient  component     =   0.010000000

  Symmetry not applied to optimisation

  Cell parameters to be optimised using strains

  Newton-Raphson optimiser to be used

  BFGS hessian update to be used

  Lower half triangular hessian to be used

  Start of bulk optimisation :

  Cycle:      0 Energy:       -85.992572  Gnorm:      8.922860  CPU:    0.018
  ** Hessian calculated **
  Cycle:      1 Energy:       -91.630693  Gnorm:      3.248521  CPU:    0.040
  ** Hessian calculated **
  Cycle:      2 Energy:       -93.407926  Gnorm:      0.241259  CPU:    0.068
  Cycle:      3 Energy:       -93.727483  Gnorm:      0.379189  CPU:    0.089
  Cycle:      4 Energy:       -93.872131  Gnorm:      0.419846  CPU:    0.107
  Cycle:      5 Energy:       -93.916106  Gnorm:      0.216759  CPU:    0.129
  Cycle:      6 Energy:       -93.955402  Gnorm:      0.236635  CPU:    0.152
  Cycle:      7 Energy:       -94.003608  Gnorm:      0.337075  CPU:    0.175
  Cycle:      8 Energy:       -94.063864  Gnorm:      0.300404  CPU:    0.198
  Cycle:      9 Energy:       -94.105073  Gnorm:      0.327302  CPU:    0.217
  Cycle:     10 Energy:       -94.152801  Gnorm:      0.172167  CPU:    0.311
  Cycle:     11 Energy:       -94.162078  Gnorm:      0.129678  CPU:    0.342
  ** Hessian calculated **
  Cycle:     12 Energy:       -94.184232  Gnorm:      0.042568  CPU:    0.393
  Cycle:     13 Energy:       -94.185870  Gnorm:      0.019064  CPU:    0.425
  Cycle:     14 Energy:       -94.186129  Gnorm:      0.004834  CPU:    0.457
  Cycle:     15 Energy:       -94.186171  Gnorm:      0.003759  CPU:    0.489


  **** Optimisation achieved ****


  Final energy =     -94.18617309 eV
  Final Gnorm  =       0.00026742

  Components of energy : 

--------------------------------------------------------------------------------
  Interatomic potentials     =          21.32396821 eV    
  Monopole - monopole (real) =          81.06426209 eV    
  Monopole - monopole (recip)=        -196.57440339 eV    
  Monopole - monopole (total)=        -115.51014130 eV    
--------------------------------------------------------------------------------
  Total lattice energy       =         -94.18617309 eV    
--------------------------------------------------------------------------------
  Total lattice energy       =           -9087.5259 kJ/(mole unit cells)
--------------------------------------------------------------------------------

  Final fractional coordinates of atoms :

--------------------------------------------------------------------------------
   No.  Atomic        x           y          z          Radius
        Label       (Frac)      (Frac)     (Frac)       (Angs) 
--------------------------------------------------------------------------------
     1  Sc    c     0.333900    0.333900    0.333900    0.000000
     2  Sc    c     0.667797    0.667813    0.667799    0.000000
     3  Cl    c     0.075682    0.445383    0.703391    0.000000
     4  Cl    c     0.297892    0.926501    0.556250    0.000000
     5  Cl    c     0.445899    0.703300    0.075286    0.000000
     6  Cl    c     0.555797    0.298410    0.926421    0.000000
     7  Cl    c     0.703804    0.075207    0.445450    0.000000
     8  Cl    c     0.926009    0.556319    0.298315    0.000000
     9  Cl    s     0.065947    0.452571    0.677260    0.000000
    10  Cl    s     0.324076    0.936176    0.549072    0.000000
    11  Cl    s     0.453018    0.677183    0.065599    0.000000
    12  Cl    s     0.548677    0.324526    0.936109    0.000000
    13  Cl    s     0.677621    0.065531    0.452629    0.000000
    14  Cl    s     0.935746    0.549133    0.324445    0.000000
--------------------------------------------------------------------------------

  Final Cartesian lattice vectors (Angstroms) :

        7.492716    0.017674    0.015750
        4.666685    5.870017    0.017236
        4.663123    2.258191    5.420142


  Final cell parameters and derivatives :

--------------------------------------------------------------------------------
       a            7.492753 Angstrom     dE/de1(xx)     0.001502 eV/strain
       b            7.499023 Angstrom     dE/de2(yy)     0.001130 eV/strain
       c            7.498139 Angstrom     dE/de3(zz)     0.001402 eV/strain
       alpha       51.360329 Degrees      dE/de4(yz)     0.000184 eV/strain
       beta        51.381576 Degrees      dE/de5(xz)     0.000594 eV/strain
       gamma       51.379896 Degrees      dE/de6(xy)     0.000958 eV/strain
--------------------------------------------------------------------------------

  Primitive cell volume =           237.388320 Angs**3

  Density of cell =      2.116870 g/cm**3

  Non-primitive cell volume =           237.388320 Angs**3


  Final internal derivatives :

--------------------------------------------------------------------------------
   No.  Atomic          a             b             c           Radius
        Label          (eV)          (eV)          (eV)        (eV/Angs)
--------------------------------------------------------------------------------
      1 Sc    c       0.000000      0.000000      0.000000      0.000000
      2 Sc    c       0.001681      0.001454      0.000124      0.000000
      3 Cl    c      -0.002719     -0.000640     -0.000937      0.000000
      4 Cl    c       0.000986      0.001285      0.000118      0.000000
      5 Cl    c       0.001446      0.000724      0.001502      0.000000
      6 Cl    c      -0.000978      0.000527     -0.000482      0.000000
      7 Cl    c      -0.001726     -0.001514     -0.000663      0.000000
      8 Cl    c       0.000842     -0.000977      0.000232      0.000000
      9 Cl    s       0.003561      0.001253      0.002922      0.000000
     10 Cl    s      -0.002865     -0.003016     -0.001029      0.000000
     11 Cl    s       0.001191      0.003381      0.002375      0.000000
     12 Cl    s      -0.001348     -0.004134     -0.001709      0.000000
     13 Cl    s       0.002463      0.001978      0.000726      0.000000
     14 Cl    s      -0.002693     -0.000158     -0.002951      0.000000
--------------------------------------------------------------------------------
  Maximum abs         0.003561      0.004134      0.002951      0.000000
--------------------------------------------------------------------------------

  Comparison of initial and final structures : 

--------------------------------------------------------------------------------
  Parameter   Initial value   Final value   Difference    Units      Percent
--------------------------------------------------------------------------------
    Volume       235.198534    237.388320     2.189785    Angs**3      0.93
    a              7.453000      7.492753     0.039753    Angstroms    0.53
    b              7.453000      7.499023     0.046023    Angstroms    0.62
    c              7.453000      7.498139     0.045139    Angstroms    0.61
    alpha         51.648000     51.360329    -0.287671    Degrees     -0.56
    beta          51.648000     51.381576    -0.266424    Degrees     -0.52
    gamma         51.648000     51.379896    -0.268104    Degrees     -0.52
      1 x          0.333900      0.333900     0.000000    Fractional   0.00
      1 y          0.333900      0.333900     0.000000    Fractional   0.00
      1 z          0.333900      0.333900     0.000000    Fractional   0.00
      2 x          0.666100      0.667797     0.001697    Fractional   0.25
      2 y          0.666100      0.667813     0.001713    Fractional   0.26
      2 z          0.666100      0.667799     0.001699    Fractional   0.25
      3 x          0.073700      0.075682     0.001982    Fractional   2.69
      3 y          0.443900      0.445383     0.001483    Fractional   0.33
      3 z          0.705300      0.703391     0.001909    Fractional   0.27
      4 x          0.294700      0.297892     0.003192    Fractional   1.08
      4 y          0.926300      0.926501     0.000201    Fractional   0.02
      4 z          0.556100      0.556250     0.000150    Fractional   0.03
      5 x          0.443900      0.445899     0.001999    Fractional   0.45
      5 y          0.705300      0.703300     0.002000    Fractional   0.28
      5 z          0.073700      0.075286     0.001586    Fractional   2.15
      6 x          0.556100      0.555797     0.000303    Fractional   0.05
      6 y          0.294700      0.298410     0.003710    Fractional   1.26
      6 z          0.926300      0.926421     0.000121    Fractional   0.01
      7 x          0.705300      0.703804     0.001496    Fractional   0.21
      7 y          0.073700      0.075207     0.001507    Fractional   2.04
      7 z          0.443900      0.445450     0.001550    Fractional   0.35
      8 x          0.926300      0.926009     0.000291    Fractional   0.03
      8 y          0.556100      0.556319     0.000219    Fractional   0.04
      8 z          0.294700      0.298315     0.003615    Fractional   1.23
      9 x          0.073700      0.065947     0.007753    Fractional  10.52
      9 y          0.443900      0.452571     0.008671    Fractional   1.95
      9 z          0.705300      0.677260     0.028040    Fractional   3.98
     10 x          0.294700      0.324076     0.029376    Fractional   9.97
     10 y          0.926300      0.936176     0.009876    Fractional   1.07
     10 z          0.556100      0.549072     0.007028    Fractional   1.26
     11 x          0.443900      0.453018     0.009118    Fractional   2.05
     11 y          0.705300      0.677183     0.028117    Fractional   3.99
     11 z          0.073700      0.065599     0.008101    Fractional  10.99
     12 x          0.556100      0.548677     0.007423    Fractional   1.33
     12 y          0.294700      0.324526     0.029826    Fractional  10.12
     12 z          0.926300      0.936109     0.009809    Fractional   1.06
     13 x          0.705300      0.677621     0.027679    Fractional   3.92
     13 y          0.073700      0.065531     0.008169    Fractional  11.08
     13 z          0.443900      0.452629     0.008729    Fractional   1.97
     14 x          0.926300      0.935746     0.009446    Fractional   1.02
     14 y          0.556100      0.549133     0.006967    Fractional   1.25
     14 z          0.294700      0.324445     0.029745    Fractional  10.09
--------------------------------------------------------------------------------


  Born effective charge tensors : 

-------------------------------------------------------------------------------
  Atom             x           y             z
-------------------------------------------------------------------------------
    1 Sc    x       2.2285     -0.2571     -0.1710
            y      -0.2560      2.6360     -0.0847
            z      -0.1727     -0.0813      2.7043
-------------------------------------------------------------------------------
    2 Sc    x       2.2285     -0.2571     -0.1710
            y      -0.2560      2.6360     -0.0846
            z      -0.1727     -0.0813      2.7044
-------------------------------------------------------------------------------
    3 Cl    x      -0.8062      0.2256      0.0411
            y       0.2160     -0.8834     -0.1927
            z       0.0553     -0.1841     -0.8334
-------------------------------------------------------------------------------
    4 Cl    x      -0.7835      0.1157      0.0049
            y       0.1062     -0.9970      0.2420
            z      -0.0106      0.2360     -0.7424
-------------------------------------------------------------------------------
    5 Cl    x      -0.6388     -0.0842      0.1250
            y      -0.0662     -0.7556      0.0353
            z       0.1280      0.0294     -1.1285
-------------------------------------------------------------------------------
    6 Cl    x      -0.6388     -0.0842      0.1250
            y      -0.0662     -0.7556      0.0353
            z       0.1280      0.0294     -1.1285
-------------------------------------------------------------------------------
    7 Cl    x      -0.7835      0.1157      0.0049
            y       0.1062     -0.9970      0.2420
            z      -0.0106      0.2360     -0.7424
-------------------------------------------------------------------------------
    8 Cl    x      -0.8062      0.2256      0.0411
            y       0.2160     -0.8834     -0.1927
            z       0.0553     -0.1841     -0.8334
-------------------------------------------------------------------------------




  Elastic Constant Matrix: (Units=GPa)

-------------------------------------------------------------------------------
  Indices      1         2         3         4         5         6    
-------------------------------------------------------------------------------
       1      3.6214    8.6385    8.0518    0.5781   -2.6064   -3.9922
       2      8.6385   31.8741   23.2528   -4.4482   -5.2569  -13.8933
       3      8.0518   23.2528   39.7403   -4.9820  -10.4619   -9.4746
       4      0.5781   -4.4482   -4.9820    7.0058   -1.6207    0.0048
       5     -2.6064   -5.2569  -10.4619   -1.6207    4.2787    3.1180
       6     -3.9922  -13.8933   -9.4746    0.0048    3.1180    6.9568
-------------------------------------------------------------------------------


  Elastic Compliance Matrix: (Units=1/GPa)

-------------------------------------------------------------------------------
  Indices      1         2         3         4         5         6    
-------------------------------------------------------------------------------
       1    4.139658 -2.323081 -1.150848 -3.167637 -2.310781 -2.793293
       2   -2.323081  2.746677 -0.244172  1.461210 -1.287173  4.395552
       3   -1.150848 -0.244172  1.480853  1.927327  4.035931 -0.941456
       4   -3.167637  1.461210  1.927327  3.842313  4.931639  1.512259
       5   -2.310781 -1.287173  4.035931  4.931639 11.609238 -3.606608
       6   -2.793293  4.395552 -0.941456  1.512259 -3.606608  7.652260
-------------------------------------------------------------------------------

  Mechanical properties :

-------------------------------------------------------------------------------
  Convention :                    Reuss         Voigt         Hill
-------------------------------------------------------------------------------
  Bulk  Modulus (GPa)     =       1.07413      17.23576       9.15495
  Shear Modulus (GPa)     =       0.12749       6.00110       3.06430
-------------------------------------------------------------------------------
  Velocity S-wave (km/s)  =       0.24541       1.68371       1.20315
  Velocity P-wave (km/s)  =       0.76663       3.45282       2.50097
-------------------------------------------------------------------------------
  Compressibility (1/GPa) =    0.93098656
-------------------------------------------------------------------------------
  Stress axis :                     x             y             z
-------------------------------------------------------------------------------
  Youngs Moduli (GPa)     =       0.24157       0.36408       0.67529
-------------------------------------------------------------------------------
  Poissons Ratio (x)      =                     0.84578       0.77715
  Poissons Ratio (y)      =       0.56118                     0.16489
  Poissons Ratio (z)      =       0.27801       0.08890
-------------------------------------------------------------------------------


  Piezoelectric Strain Matrix: (Units=C/m**2)

-------------------------------------------------------------------------------
  Indices      1         2         3         4         5         6    
-------------------------------------------------------------------------------
       x    -0.00008   0.00014   0.00001  -0.00009   0.00009  -0.00005
       y    -0.00004  -0.00012   0.00007   0.00004  -0.00006  -0.00002
       z    -0.00006  -0.00018  -0.00004  -0.00005   0.00002   0.00008
-------------------------------------------------------------------------------


  Piezoelectric Stress Matrix: (Units=10**-11 C/N)

-------------------------------------------------------------------------------
  Indices      1         2         3         4         5         6    
-------------------------------------------------------------------------------
       x    -0.04806   0.01066   0.03304   0.05336   0.08812  -0.00159
       y     0.01097  -0.01943   0.00109  -0.01104   0.00386  -0.03303
       z     0.00895  -0.00670  -0.00499  -0.01237  -0.01368  -0.00769
-------------------------------------------------------------------------------


  Static dielectric constant tensor : 

-------------------------------------------------------------------------------
              x         y         z
-------------------------------------------------------------------------------
       x     2.55749  -0.36997  -0.24788
       y    -0.36997   3.14505  -0.11962
       z    -0.24788  -0.11962   3.24356
--------------------------------------------------------------------------------

  High frequency dielectric constant tensor : 

-------------------------------------------------------------------------------
              x         y         z
-------------------------------------------------------------------------------
       x     1.82639  -0.04056  -0.02716
       y    -0.04056   1.89075  -0.01312
       z    -0.02716  -0.01312   1.90154
-------------------------------------------------------------------------------

  Static refractive indices : 

-------------------------------------------------------------------------------
    1 =    1.51614      2 =    1.82309      3 =    1.82312
-------------------------------------------------------------------------------

  High frequency refractive indices : 

-------------------------------------------------------------------------------
    1 =    1.34090      2 =    1.38214      3 =    1.38215
-------------------------------------------------------------------------------


  Time to end of optimisation =       0.5474 seconds

********************************************************************************
*  Defect calculation for configuration   1 :                                  *
********************************************************************************



!!!!!!!!!!!!!!!!!!!!!!!!!!!!!!!!!!!!!!!!!!!!!!!!!!!!!!!!!!!!!!!!!!!!!!!!!!!!!!!!
!! WARNING : Ambiguous vacancy specifier used
!!!!!!!!!!!!!!!!!!!!!!!!!!!!!!!!!!!!!!!!!!!!!!!!!!!!!!!!!!!!!!!!!!!!!!!!!!!!!!!!



!!!!!!!!!!!!!!!!!!!!!!!!!!!!!!!!!!!!!!!!!!!!!!!!!!!!!!!!!!!!!!!!!!!!!!!!!!!!!!!!
!! WARNING : Ambiguous vacancy specifier used
!!!!!!!!!!!!!!!!!!!!!!!!!!!!!!!!!!!!!!!!!!!!!!!!!!!!!!!!!!!!!!!!!!!!!!!!!!!!!!!!

  Total number of defects =      2

  Total charge on defect  =   1.00

  Defect centre is at   0.0737   0.4439   0.7053  Frac

  Region 1 radius =  10.0000      Number of ions =    263

  Region 2 radius =  24.0000      Number of ions =   3174

  Region 2a mode = 4 : screened electrostatics due to region 1 
                       neglect correction to region 1 forces from 2a
                       region 2a displacements based on defects only

  Region 2a ions will only interact with defects in region 1

  Vacancies:

--------------------------------------------------------------------------------
    Specification type     Symbol/Number         x          y          z
--------------------------------------------------------------------------------
    Atom                    Cl    core
    Atom                    Cl    shel
--------------------------------------------------------------------------------


  Components of defect energy : 

--------------------------------------------------------------------------------
  Region 1 - region 1                   =     15.63899246 eV
  Region 1 - region 2a (unrelaxed)      =     -6.10451799 eV
  Region 1 - 2a (relaxed - correction)  =     -0.52416897 eV
  Region 1 (Total)                      =      9.01030550 eV
  Region 2a                             =      0.26213665 eV
  Region 2b                             =     -0.19638630 eV
--------------------------------------------------------------------------------
  Total defect energy                   =      9.07605584 eV
--------------------------------------------------------------------------------

  Largest displacement in region 2 =   0.0191 Angstroms


  Number of variables =      789

  Maximum number of calculations  =        1000
  Maximum Hessian update interval =          10
  Maximum step size               =   1.0000000
  Maximum parameter tolerance     =   0.0000100
  Maximum function  tolerance     =   0.0000100
  Maximum gradient  tolerance     =   0.0010000

  Symmetry adapted optimisation

  Newton-Raphson optimiser to be used

  BFGS hessian update to be used

  Lower half triangular hessian to be used

  Start of defect optimisation :

  Cycle:      0 Defect Energy:   9.076056  Gnorm:     0.020594  CPU:    3.238
  ** Hessian calculated **
  Cycle:      1 Defect Energy:   8.072586  Gnorm:     0.016683  CPU:   14.755
  Cycle:      2 Defect Energy:   6.872412  Gnorm:     0.010231  CPU:   23.730
  Cycle:      3 Defect Energy:   6.010891  Gnorm:     0.001244  CPU:   30.166
