********************************************************************************
*                       GENERAL UTILITY LATTICE PROGRAM                        *
*                                 Julian Gale                                  *
*                       Curtin Institute for Computation                       *
*                    School of Molecular and Life Sciences                     *
*                    Curtin University, Western Australia                      *
********************************************************************************
* Version = 5.2.0 * Last modified =   1st June 2020                            *
********************************************************************************
*  optimise     - perform optimisation run                                     *
*  conp         - constant pressure calculation                                *
*  property     - calculate properties for final geometry                      *
*  defect       - perform defect calculation after bulk run                    *
*  compare      - compare initial and final structures                         *
********************************************************************************

  Job Started  at 18:43.41  7th February   2022                               

  Number of CPUs =     1


  Total number of configurations input =      1

********************************************************************************
*  Input for Configuration =   1                                               *
********************************************************************************

  Formula = Sc2Cl6                                                      

  Number of irreducible atoms/shells =      14


  Total number atoms/shells =      14

  Dimensionality = 3               :  Bulk   



  Cartesian lattice vectors (Angstroms) :

        7.453000    0.000000    0.000000
        4.624520    5.844744    0.000000
        4.624520    2.237970    5.399307

  Cell parameters (Angstroms/Degrees):

  a =       7.4530    alpha =  51.6480
  b =       7.4530    beta  =  51.6480
  c =       7.4530    gamma =  51.6480

  Initial cell volume =         235.198534 Angs**3

  Temperature of configuration =   0.00     K 

  Pressure of configuration =         0.000 GPa 

  Fractional coordinates of asymmetric unit :

--------------------------------------------------------------------------------
   No.  Atomic       x           y          z         Charge      Occupancy
        Label      (Frac)      (Frac)     (Frac)        (e)         (Frac)  
--------------------------------------------------------------------------------
      1 Sc    c    0.333900    0.333900    0.333900     3.00000    1.000000    
      2 Sc    c    0.666100 *  0.666100 *  0.666100 *   3.00000    1.000000    
      3 Cl    c    0.073700 *  0.443900 *  0.705300 *   1.48500    1.000000    
      4 Cl    c    0.294700 *  0.926300 *  0.556100 *   1.48500    1.000000    
      5 Cl    c    0.443900 *  0.705300 *  0.073700 *   1.48500    1.000000    
      6 Cl    c    0.556100 *  0.294700 *  0.926300 *   1.48500    1.000000    
      7 Cl    c    0.705300 *  0.073700 *  0.443900 *   1.48500    1.000000    
      8 Cl    c    0.926300 *  0.556100 *  0.294700 *   1.48500    1.000000    
      9 Cl    s    0.073700 *  0.443900 *  0.705300 *  -2.48500    1.000000    
     10 Cl    s    0.294700 *  0.926300 *  0.556100 *  -2.48500    1.000000    
     11 Cl    s    0.443900 *  0.705300 *  0.073700 *  -2.48500    1.000000    
     12 Cl    s    0.556100 *  0.294700 *  0.926300 *  -2.48500    1.000000    
     13 Cl    s    0.705300 *  0.073700 *  0.443900 *  -2.48500    1.000000    
     14 Cl    s    0.926300 *  0.556100 *  0.294700 *  -2.48500    1.000000    
--------------------------------------------------------------------------------



********************************************************************************
*  General input information                                                   *
********************************************************************************

  Species output for all configurations : 

--------------------------------------------------------------------------------
  Species    Type    Atomic    Atomic    Charge       Radii (Angs)     Library
                     Number     Mass       (e)     Cova   Ionic  VDW   Symbol
--------------------------------------------------------------------------------
    Sc       Core       21      44.96   3.000000   1.440  0.000  2.150          
    Cl       Core       17      35.45   1.485000   0.990  0.000  1.650          
    Cl       Shell      17       0.00  -2.485000   0.990  0.000  1.650          
--------------------------------------------------------------------------------


  Lattice summation method               =    Ewald          (3-D)
                                         =    Parry          (2-D)
                                         =    Saunders et al (1-D)
  Accuracy factor for lattice sums       =   12.000


  Analytic derivatives to be used

  Time limit = Infinity

  Maximum range for interatomic potentials =    100000.000000 Angstroms

  General interatomic potentials :

--------------------------------------------------------------------------------
Atom  Types   Potential      Parameter       Value         Units   Cutoffs(Ang)
  1     2                                                            Min /  Max 
--------------------------------------------------------------------------------
Cl   c Cl   s Spring (c-s)  Spring k 2       36.070000    eV*Ang^-2 0.000  0.800
                            Spring k 4       0.0000000    eV*Ang^-4 
--------------------------------------------------------------------------------
Sc   c Cl   s Buckingham    Buckingham A     2456.2200    eV        0.000 12.000
                            Buckingham rho  0.31470000    Ang       
                            Buckingham C     0.0000000    eV*Ang^6  
--------------------------------------------------------------------------------
Cl   s Cl   s Buckingham    Buckingham A     1227.2000    eV        0.000 12.000
                            Buckingham rho  0.32100000    Ang       
                            Buckingham C     14.530000    eV*Ang^6  
--------------------------------------------------------------------------------

********************************************************************************
*  Output for configuration   1                                                *
********************************************************************************


  Components of energy : 

--------------------------------------------------------------------------------
  Interatomic potentials     =          10.39244711 eV    
  Monopole - monopole (real) =         -30.86300284 eV    
  Monopole - monopole (recip)=         -65.52201623 eV    
  Monopole - monopole (total)=         -96.38501907 eV    
--------------------------------------------------------------------------------
  Total lattice energy       =         -85.99257196 eV    
--------------------------------------------------------------------------------
  Total lattice energy       =           -8296.9687 kJ/(mole unit cells)
--------------------------------------------------------------------------------


  Number of variables =       45

  Maximum number of calculations  =          1000
  Maximum Hessian update interval =            10
  Maximum step size               =   1.000000000
  Maximum parameter tolerance     =   0.000010000
  Maximum function  tolerance     =   0.000010000
  Maximum gradient  tolerance     =   0.001000000
  Maximum gradient  component     =   0.010000000

  Symmetry not applied to optimisation

  Cell parameters to be optimised using strains

  Newton-Raphson optimiser to be used

  BFGS hessian update to be used

  Lower half triangular hessian to be used

  Start of bulk optimisation :

  Cycle:      0 Energy:       -85.992572  Gnorm:      8.922860  CPU:    0.018
  ** Hessian calculated **
  Cycle:      1 Energy:       -91.630693  Gnorm:      3.248521  CPU:    0.040
  ** Hessian calculated **
  Cycle:      2 Energy:       -93.407926  Gnorm:      0.241259  CPU:    0.069
  Cycle:      3 Energy:       -93.727483  Gnorm:      0.379189  CPU:    0.091
  Cycle:      4 Energy:       -93.872131  Gnorm:      0.419846  CPU:    0.110
  Cycle:      5 Energy:       -93.916106  Gnorm:      0.216759  CPU:    0.133
  Cycle:      6 Energy:       -93.955402  Gnorm:      0.236635  CPU:    0.157
  Cycle:      7 Energy:       -94.003608  Gnorm:      0.337075  CPU:    0.181
  Cycle:      8 Energy:       -94.063864  Gnorm:      0.300404  CPU:    0.205
  Cycle:      9 Energy:       -94.105073  Gnorm:      0.327302  CPU:    0.225
  Cycle:     10 Energy:       -94.152801  Gnorm:      0.172167  CPU:    0.338
  Cycle:     11 Energy:       -94.162078  Gnorm:      0.129678  CPU:    0.375
  ** Hessian calculated **
  Cycle:     12 Energy:       -94.184232  Gnorm:      0.042568  CPU:    0.426
  Cycle:     13 Energy:       -94.185870  Gnorm:      0.019064  CPU:    0.457
  Cycle:     14 Energy:       -94.186129  Gnorm:      0.004834  CPU:    0.488
  Cycle:     15 Energy:       -94.186171  Gnorm:      0.003759  CPU:    0.520


  **** Optimisation achieved ****


  Final energy =     -94.18617309 eV
  Final Gnorm  =       0.00026742

  Components of energy : 

--------------------------------------------------------------------------------
  Interatomic potentials     =          21.32396821 eV    
  Monopole - monopole (real) =          81.06426209 eV    
  Monopole - monopole (recip)=        -196.57440339 eV    
  Monopole - monopole (total)=        -115.51014130 eV    
--------------------------------------------------------------------------------
  Total lattice energy       =         -94.18617309 eV    
--------------------------------------------------------------------------------
  Total lattice energy       =           -9087.5259 kJ/(mole unit cells)
--------------------------------------------------------------------------------

  Final fractional coordinates of atoms :

--------------------------------------------------------------------------------
   No.  Atomic        x           y          z          Radius
        Label       (Frac)      (Frac)     (Frac)       (Angs) 
--------------------------------------------------------------------------------
     1  Sc    c     0.333900    0.333900    0.333900    0.000000
     2  Sc    c     0.667797    0.667813    0.667799    0.000000
     3  Cl    c     0.075682    0.445383    0.703391    0.000000
     4  Cl    c     0.297892    0.926501    0.556250    0.000000
     5  Cl    c     0.445899    0.703300    0.075286    0.000000
     6  Cl    c     0.555797    0.298410    0.926421    0.000000
     7  Cl    c     0.703804    0.075207    0.445450    0.000000
     8  Cl    c     0.926009    0.556319    0.298315    0.000000
     9  Cl    s     0.065947    0.452571    0.677260    0.000000
    10  Cl    s     0.324076    0.936176    0.549072    0.000000
    11  Cl    s     0.453018    0.677183    0.065599    0.000000
    12  Cl    s     0.548677    0.324526    0.936109    0.000000
    13  Cl    s     0.677621    0.065531    0.452629    0.000000
    14  Cl    s     0.935746    0.549133    0.324445    0.000000
--------------------------------------------------------------------------------

  Final Cartesian lattice vectors (Angstroms) :

        7.492716    0.017674    0.015750
        4.666685    5.870017    0.017236
        4.663123    2.258191    5.420142


  Final cell parameters and derivatives :

--------------------------------------------------------------------------------
       a            7.492753 Angstrom     dE/de1(xx)     0.001502 eV/strain
       b            7.499023 Angstrom     dE/de2(yy)     0.001130 eV/strain
       c            7.498139 Angstrom     dE/de3(zz)     0.001402 eV/strain
       alpha       51.360329 Degrees      dE/de4(yz)     0.000184 eV/strain
       beta        51.381576 Degrees      dE/de5(xz)     0.000594 eV/strain
       gamma       51.379896 Degrees      dE/de6(xy)     0.000958 eV/strain
--------------------------------------------------------------------------------

  Primitive cell volume =           237.388320 Angs**3

  Density of cell =      2.116870 g/cm**3

  Non-primitive cell volume =           237.388320 Angs**3


  Final internal derivatives :

--------------------------------------------------------------------------------
   No.  Atomic          a             b             c           Radius
        Label          (eV)          (eV)          (eV)        (eV/Angs)
--------------------------------------------------------------------------------
      1 Sc    c       0.000000      0.000000      0.000000      0.000000
      2 Sc    c       0.001681      0.001454      0.000124      0.000000
      3 Cl    c      -0.002719     -0.000640     -0.000937      0.000000
      4 Cl    c       0.000986      0.001285      0.000118      0.000000
      5 Cl    c       0.001446      0.000724      0.001502      0.000000
      6 Cl    c      -0.000978      0.000527     -0.000482      0.000000
      7 Cl    c      -0.001726     -0.001514     -0.000663      0.000000
      8 Cl    c       0.000842     -0.000977      0.000232      0.000000
      9 Cl    s       0.003561      0.001253      0.002922      0.000000
     10 Cl    s      -0.002865     -0.003016     -0.001029      0.000000
     11 Cl    s       0.001191      0.003381      0.002375      0.000000
     12 Cl    s      -0.001348     -0.004134     -0.001709      0.000000
     13 Cl    s       0.002463      0.001978      0.000726      0.000000
     14 Cl    s      -0.002693     -0.000158     -0.002951      0.000000
--------------------------------------------------------------------------------
  Maximum abs         0.003561      0.004134      0.002951      0.000000
--------------------------------------------------------------------------------

  Comparison of initial and final structures : 

--------------------------------------------------------------------------------
  Parameter   Initial value   Final value   Difference    Units      Percent
--------------------------------------------------------------------------------
    Volume       235.198534    237.388320     2.189785    Angs**3      0.93
    a              7.453000      7.492753     0.039753    Angstroms    0.53
    b              7.453000      7.499023     0.046023    Angstroms    0.62
    c              7.453000      7.498139     0.045139    Angstroms    0.61
    alpha         51.648000     51.360329    -0.287671    Degrees     -0.56
    beta          51.648000     51.381576    -0.266424    Degrees     -0.52
    gamma         51.648000     51.379896    -0.268104    Degrees     -0.52
      1 x          0.333900      0.333900     0.000000    Fractional   0.00
      1 y          0.333900      0.333900     0.000000    Fractional   0.00
      1 z          0.333900      0.333900     0.000000    Fractional   0.00
      2 x          0.666100      0.667797     0.001697    Fractional   0.25
      2 y          0.666100      0.667813     0.001713    Fractional   0.26
      2 z          0.666100      0.667799     0.001699    Fractional   0.25
      3 x          0.073700      0.075682     0.001982    Fractional   2.69
      3 y          0.443900      0.445383     0.001483    Fractional   0.33
      3 z          0.705300      0.703391     0.001909    Fractional   0.27
      4 x          0.294700      0.297892     0.003192    Fractional   1.08
      4 y          0.926300      0.926501     0.000201    Fractional   0.02
      4 z          0.556100      0.556250     0.000150    Fractional   0.03
      5 x          0.443900      0.445899     0.001999    Fractional   0.45
      5 y          0.705300      0.703300     0.002000    Fractional   0.28
      5 z          0.073700      0.075286     0.001586    Fractional   2.15
      6 x          0.556100      0.555797     0.000303    Fractional   0.05
      6 y          0.294700      0.298410     0.003710    Fractional   1.26
      6 z          0.926300      0.926421     0.000121    Fractional   0.01
      7 x          0.705300      0.703804     0.001496    Fractional   0.21
      7 y          0.073700      0.075207     0.001507    Fractional   2.04
      7 z          0.443900      0.445450     0.001550    Fractional   0.35
      8 x          0.926300      0.926009     0.000291    Fractional   0.03
      8 y          0.556100      0.556319     0.000219    Fractional   0.04
      8 z          0.294700      0.298315     0.003615    Fractional   1.23
      9 x          0.073700      0.065947     0.007753    Fractional  10.52
      9 y          0.443900      0.452571     0.008671    Fractional   1.95
      9 z          0.705300      0.677260     0.028040    Fractional   3.98
     10 x          0.294700      0.324076     0.029376    Fractional   9.97
     10 y          0.926300      0.936176     0.009876    Fractional   1.07
     10 z          0.556100      0.549072     0.007028    Fractional   1.26
     11 x          0.443900      0.453018     0.009118    Fractional   2.05
     11 y          0.705300      0.677183     0.028117    Fractional   3.99
     11 z          0.073700      0.065599     0.008101    Fractional  10.99
     12 x          0.556100      0.548677     0.007423    Fractional   1.33
     12 y          0.294700      0.324526     0.029826    Fractional  10.12
     12 z          0.926300      0.936109     0.009809    Fractional   1.06
     13 x          0.705300      0.677621     0.027679    Fractional   3.92
     13 y          0.073700      0.065531     0.008169    Fractional  11.08
     13 z          0.443900      0.452629     0.008729    Fractional   1.97
     14 x          0.926300      0.935746     0.009446    Fractional   1.02
     14 y          0.556100      0.549133     0.006967    Fractional   1.25
     14 z          0.294700      0.324445     0.029745    Fractional  10.09
--------------------------------------------------------------------------------


  Born effective charge tensors : 

-------------------------------------------------------------------------------
  Atom             x           y             z
-------------------------------------------------------------------------------
    1 Sc    x       2.2285     -0.2571     -0.1710
            y      -0.2560      2.6360     -0.0847
            z      -0.1727     -0.0813      2.7043
-------------------------------------------------------------------------------
    2 Sc    x       2.2285     -0.2571     -0.1710
            y      -0.2560      2.6360     -0.0846
            z      -0.1727     -0.0813      2.7044
-------------------------------------------------------------------------------
    3 Cl    x      -0.8062      0.2256      0.0411
            y       0.2160     -0.8834     -0.1927
            z       0.0553     -0.1841     -0.8334
-------------------------------------------------------------------------------
    4 Cl    x      -0.7835      0.1157      0.0049
            y       0.1062     -0.9970      0.2420
            z      -0.0106      0.2360     -0.7424
-------------------------------------------------------------------------------
    5 Cl    x      -0.6388     -0.0842      0.1250
            y      -0.0662     -0.7556      0.0353
            z       0.1280      0.0294     -1.1285
-------------------------------------------------------------------------------
    6 Cl    x      -0.6388     -0.0842      0.1250
            y      -0.0662     -0.7556      0.0353
            z       0.1280      0.0294     -1.1285
-------------------------------------------------------------------------------
    7 Cl    x      -0.7835      0.1157      0.0049
            y       0.1062     -0.9970      0.2420
            z      -0.0106      0.2360     -0.7424
-------------------------------------------------------------------------------
    8 Cl    x      -0.8062      0.2256      0.0411
            y       0.2160     -0.8834     -0.1927
            z       0.0553     -0.1841     -0.8334
-------------------------------------------------------------------------------




  Elastic Constant Matrix: (Units=GPa)

-------------------------------------------------------------------------------
  Indices      1         2         3         4         5         6    
-------------------------------------------------------------------------------
       1      3.6214    8.6385    8.0518    0.5781   -2.6064   -3.9922
       2      8.6385   31.8741   23.2528   -4.4482   -5.2569  -13.8933
       3      8.0518   23.2528   39.7403   -4.9820  -10.4619   -9.4746
       4      0.5781   -4.4482   -4.9820    7.0058   -1.6207    0.0048
       5     -2.6064   -5.2569  -10.4619   -1.6207    4.2787    3.1180
       6     -3.9922  -13.8933   -9.4746    0.0048    3.1180    6.9568
-------------------------------------------------------------------------------


  Elastic Compliance Matrix: (Units=1/GPa)

-------------------------------------------------------------------------------
  Indices      1         2         3         4         5         6    
-------------------------------------------------------------------------------
       1    4.139658 -2.323081 -1.150848 -3.167637 -2.310781 -2.793293
       2   -2.323081  2.746677 -0.244172  1.461210 -1.287173  4.395552
       3   -1.150848 -0.244172  1.480853  1.927327  4.035931 -0.941456
       4   -3.167637  1.461210  1.927327  3.842313  4.931639  1.512259
       5   -2.310781 -1.287173  4.035931  4.931639 11.609238 -3.606608
       6   -2.793293  4.395552 -0.941456  1.512259 -3.606608  7.652260
-------------------------------------------------------------------------------

  Mechanical properties :

-------------------------------------------------------------------------------
  Convention :                    Reuss         Voigt         Hill
-------------------------------------------------------------------------------
  Bulk  Modulus (GPa)     =       1.07413      17.23576       9.15495
  Shear Modulus (GPa)     =       0.12749       6.00110       3.06430
-------------------------------------------------------------------------------
  Velocity S-wave (km/s)  =       0.24541       1.68371       1.20315
  Velocity P-wave (km/s)  =       0.76663       3.45282       2.50097
-------------------------------------------------------------------------------
  Compressibility (1/GPa) =    0.93098656
-------------------------------------------------------------------------------
  Stress axis :                     x             y             z
-------------------------------------------------------------------------------
  Youngs Moduli (GPa)     =       0.24157       0.36408       0.67529
-------------------------------------------------------------------------------
  Poissons Ratio (x)      =                     0.84578       0.77715
  Poissons Ratio (y)      =       0.56118                     0.16489
  Poissons Ratio (z)      =       0.27801       0.08890
-------------------------------------------------------------------------------


  Piezoelectric Strain Matrix: (Units=C/m**2)

-------------------------------------------------------------------------------
  Indices      1         2         3         4         5         6    
-------------------------------------------------------------------------------
       x    -0.00008   0.00014   0.00001  -0.00009   0.00009  -0.00005
       y    -0.00004  -0.00012   0.00007   0.00004  -0.00006  -0.00002
       z    -0.00006  -0.00018  -0.00004  -0.00005   0.00002   0.00008
-------------------------------------------------------------------------------


  Piezoelectric Stress Matrix: (Units=10**-11 C/N)

-------------------------------------------------------------------------------
  Indices      1         2         3         4         5         6    
-------------------------------------------------------------------------------
       x    -0.04806   0.01066   0.03304   0.05336   0.08812  -0.00159
       y     0.01097  -0.01943   0.00109  -0.01104   0.00386  -0.03303
       z     0.00895  -0.00670  -0.00499  -0.01237  -0.01368  -0.00769
-------------------------------------------------------------------------------


  Static dielectric constant tensor : 

-------------------------------------------------------------------------------
              x         y         z
-------------------------------------------------------------------------------
       x     2.55749  -0.36997  -0.24788
       y    -0.36997   3.14505  -0.11962
       z    -0.24788  -0.11962   3.24356
--------------------------------------------------------------------------------

  High frequency dielectric constant tensor : 

-------------------------------------------------------------------------------
              x         y         z
-------------------------------------------------------------------------------
       x     1.82639  -0.04056  -0.02716
       y    -0.04056   1.89075  -0.01312
       z    -0.02716  -0.01312   1.90154
-------------------------------------------------------------------------------

  Static refractive indices : 

-------------------------------------------------------------------------------
    1 =    1.51614      2 =    1.82309      3 =    1.82312
-------------------------------------------------------------------------------

  High frequency refractive indices : 

-------------------------------------------------------------------------------
    1 =    1.34090      2 =    1.38214      3 =    1.38215
-------------------------------------------------------------------------------


  Time to end of optimisation =       0.5779 seconds

********************************************************************************
*  Defect calculation for configuration   1 :                                  *
********************************************************************************



!!!!!!!!!!!!!!!!!!!!!!!!!!!!!!!!!!!!!!!!!!!!!!!!!!!!!!!!!!!!!!!!!!!!!!!!!!!!!!!!
!! WARNING : Ambiguous vacancy specifier used
!!!!!!!!!!!!!!!!!!!!!!!!!!!!!!!!!!!!!!!!!!!!!!!!!!!!!!!!!!!!!!!!!!!!!!!!!!!!!!!!



!!!!!!!!!!!!!!!!!!!!!!!!!!!!!!!!!!!!!!!!!!!!!!!!!!!!!!!!!!!!!!!!!!!!!!!!!!!!!!!!
!! WARNING : Ambiguous vacancy specifier used
!!!!!!!!!!!!!!!!!!!!!!!!!!!!!!!!!!!!!!!!!!!!!!!!!!!!!!!!!!!!!!!!!!!!!!!!!!!!!!!!

  Total number of defects =      2

  Total charge on defect  =   1.00

  Defect centre is at   0.0737   0.4439   0.7053  Frac

  Region 1 radius =  17.0000      Number of ions =   1197

  Region 2 radius =  24.0000      Number of ions =   2240

  Region 2a mode = 4 : screened electrostatics due to region 1 
                       neglect correction to region 1 forces from 2a
                       region 2a displacements based on defects only

  Region 2a ions will only interact with defects in region 1

  Vacancies:

--------------------------------------------------------------------------------
    Specification type     Symbol/Number         x          y          z
--------------------------------------------------------------------------------
    Atom                    Cl    core
    Atom                    Cl    shel
--------------------------------------------------------------------------------


  Components of defect energy : 

--------------------------------------------------------------------------------
  Region 1 - region 1                   =     20.73560285 eV
  Region 1 - region 2a (unrelaxed)      =    -11.20112840 eV
  Region 1 - 2a (relaxed - correction)  =     -0.16332126 eV
  Region 1 (Total)                      =      9.37115319 eV
  Region 2a                             =      0.08166609 eV
  Region 2b                             =     -0.19638630 eV
--------------------------------------------------------------------------------
  Total defect energy                   =      9.25643298 eV
--------------------------------------------------------------------------------

  Largest displacement in region 2 =   0.0070 Angstroms


  Number of variables =     3591

  Maximum number of calculations  =        1000
  Maximum Hessian update interval =          10
  Maximum step size               =   1.0000000
  Maximum parameter tolerance     =   0.0000100
  Maximum function  tolerance     =   0.0000100
  Maximum gradient  tolerance     =   0.0010000

  Symmetry adapted optimisation

  Newton-Raphson optimiser to be used

  BFGS hessian update to be used

  Lower half triangular hessian to be used

  Start of defect optimisation :

  Cycle:      0 Defect Energy:   9.256433  Gnorm:     0.004766  CPU:   27.483
  ** Hessian calculated **
  Cycle:      1 Defect Energy:   8.285934  Gnorm:     0.003955  CPU:  129.671
  Cycle:      2 Defect Energy:   8.071000  Gnorm:     0.003744  CPU:  170.423
  Cycle:      3 Defect Energy:   7.816636  Gnorm:     0.003487  CPU:  218.509
  Cycle:      4 Defect Energy:   6.448834  Gnorm:     0.001586  CPU:  248.004
  Cycle:      5 Defect Energy:   5.965717  Gnorm:     0.000269  CPU:  271.194
  Cycle:      6 Defect Energy:   5.932412  Gnorm:     0.000200  CPU:  275.282
  Cycle:      7 Defect Energy:   5.902795  Gnorm:     0.000171  CPU:  279.335
  Cycle:      8 Defect Energy:   5.882491  Gnorm:     0.000152  CPU:  283.459
  Cycle:      9 Defect Energy:   5.870063  Gnorm:     0.000122  CPU:  287.488
  Cycle:     10 Defect Energy:   5.869651  Gnorm:     0.000138  CPU:  291.437
  ** Hessian calculated **
  Cycle:     11 Defect Energy:   5.857728  Gnorm:     0.000096  CPU:  326.650
  Cycle:     12 Defect Energy:   5.851446  Gnorm:     0.000067  CPU:  330.435
  Cycle:     13 Defect Energy:   5.847878  Gnorm:     0.000047  CPU:  334.214
  Cycle:     14 Defect Energy:   5.845831  Gnorm:     0.000033  CPU:  337.929
  Cycle:     15 Defect Energy:   5.844653  Gnorm:     0.000023  CPU:  341.714
  Cycle:     16 Defect Energy:   5.843976  Gnorm:     0.000017  CPU:  345.557
  Cycle:     17 Defect Energy:   5.843602  Gnorm:     0.000012  CPU:  349.382
  Cycle:     18 Defect Energy:   5.843402  Gnorm:     0.000008  CPU:  353.230
  Cycle:     19 Defect Energy:   5.843291  Gnorm:     0.000006  CPU:  357.067
  Cycle:     20 Defect Energy:   5.843237  Gnorm:     0.000004  CPU:  360.915
  ** Hessian calculated **
  Cycle:     21 Defect Energy:   5.843202  Gnorm:     0.000003  CPU:  394.760
  Cycle:     22 Defect Energy:   5.843191  Gnorm:     0.000002  CPU:  398.438


  **** Optimisation achieved ****


  Final defect energy  =        5.84318367
  Final defect Gnorm   =        0.00000144

  Components of defect energy : 

--------------------------------------------------------------------------------
  Region 1 - region 1                   =     17.80182480 eV
  Region 1 - region 2a (unrelaxed)      =    -11.68940683 eV
  Region 1 - 2a (relaxed - correction)  =     -0.14524846 eV
  Region 1 (Total)                      =      5.96716951 eV
  Region 2a                             =      0.07260103 eV
  Region 2b                             =     -0.19658688 eV
--------------------------------------------------------------------------------
  Total defect energy                   =      5.84318367 eV
--------------------------------------------------------------------------------

  Largest displacement in region 2 =   0.0070 Angstroms

  Final coordinates of region 1 :

--------------------------------------------------------------------------------
   No.  Atomic        x           y           z          Radius      Charge
        Label       (Angs)      (Angs)      (Angs)       (Angs)       (e) 
--------------------------------------------------------------------------------
     1  Sc    c     3.288248    5.659193    3.778490    0.000000    3.000000
     2  Sc    c     5.637990    2.281257    1.524155    0.000000    3.000000
     3  Cl    c     3.943752    3.887254    2.233577    0.000000    1.485000
     4  Cl    c     4.195112    6.432171    5.921286    0.000000    1.485000
     5  Cl    c     7.684850    1.440203    2.582813    0.000000    1.485000
     6  Cl    c     6.869819    4.077074    0.365685    0.000000    1.485000
     7  Cl    c     4.628779    7.287601    2.502083    0.000000    1.485000
     8  Cl    c     2.174996    3.916113    5.112005    0.000000    1.485000
     9  Cl    c     4.479762    0.615059    2.914733    0.000000    1.485000
    10  Cl    c     9.831978    3.875698    5.026440    0.000000    1.485000
    11  Cl    c     4.811154    3.608825    7.817216    0.000000    1.485000
    12  Cl    c     9.137356    6.679953    3.016066    0.000000    1.485000
    13  Cl    c     6.866186    0.664634    5.857251    0.000000    1.485000
    14  Cl    c     8.084330    6.185255    7.050597    0.000000    1.485000
    15  Sc    c     2.735970    4.920015    7.393306    0.000000    3.000000
    16  Sc    c     6.591721   -0.581016    3.719110    0.000000    3.000000
    17  Cl    c     1.331298    6.813872    2.879603    0.000000    1.485000
    18  Cl    c     5.082796    1.450335   -0.704717    0.000000    1.485000
    19  Sc    c    11.235999    5.437452    3.639363    0.000000    3.000000
    20  Cl    c    10.905540    3.936223    1.654074    0.000000    1.485000
    21  Sc    c    10.278889    4.976064    7.246630    0.000000    3.000000
    22  Cl    c     3.386901    0.274755    7.062311    0.000000    1.485000
    23  Sc    c     2.643818    8.689852    1.714494    0.000000    3.000000
    24  Cl    c     9.133598    3.077460    8.416768    0.000000    1.485000
    25  Sc    c     6.531238    3.144587   -1.986418    0.000000    3.000000
    26  Cl    c     7.029634    9.706221    5.035049    0.000000    1.485000
    27  Sc    c     3.691506    1.728520    9.087790    0.000000    3.000000
    28  Sc    c     5.558989   -0.962538    7.290853    0.000000    3.000000
    29  Cl    c     1.599822    3.010966    8.504538    0.000000    1.485000
    30  Cl    c     5.179010   -2.108438    5.078405    0.000000    1.485000
    31  Cl    c     4.453970    4.438048   -2.453469    0.000000    1.485000
    32  Cl    c     2.336219    7.471668   -0.435131    0.000000    1.485000
    33  Cl    c     8.069038    9.780147    1.655019    0.000000    1.485000
    34  Cl    c     3.090709    6.459407    9.309832    0.000000    1.485000
    35  Cl    c     5.893076    0.552675    9.254827    0.000000    1.485000
    36  Cl    c     0.177360    1.445238    2.411802    0.000000    1.485000
    37  Cl    c     2.988107   10.018019    3.797973    0.000000    1.485000
    38  Cl    c     8.798833   -1.709362    3.853941    0.000000    1.485000
    39  Cl    c     0.642813    6.234872    7.056387    0.000000    1.485000
    40  Sc    c    10.272091    8.590808    1.829749    0.000000    3.000000
    41  Cl    c     6.331600   -1.905489    1.619414    0.000000    1.485000
    42  Cl    c     5.872722    7.786139   -1.596254    0.000000    1.485000
    43  Cl    c     8.661247    1.901262   -1.621617    0.000000    1.485000
    44  Cl    c    11.626637    6.558232    5.843806    0.000000    1.485000
    45  Cl    c     6.307533    8.923121    8.416562    0.000000    1.485000
    46  Cl    c     9.858185    7.465468   -0.372431    0.000000    1.485000
    47  Sc    c     8.397967    7.683565    9.052225    0.000000    3.000000
    48  Cl    c     7.032595    6.097848   10.434929    0.000000    1.485000
    49  Cl    c    11.968188    0.840156    3.026794    0.000000    1.485000
    50  Cl    c     4.136234   10.162657    0.379580    0.000000    1.485000
    51  Cl    c    10.910669    0.335714    7.041906    0.000000    1.485000
    52  Cl    c     7.679313    5.095718   -3.009755    0.000000    1.485000
    53  Cl    c    -0.518336    4.250379    0.412519    0.000000    1.485000
    54  Cl    c    12.351173    7.327181    2.437676    0.000000    1.485000
    55  Cl    c    -1.580655    4.184198    3.776999    0.000000    1.485000
    56  Cl    c     1.254722   -1.647771    3.781556    0.000000    1.485000
    57  Cl    c     1.235912    1.938290   -1.606343    0.000000    1.485000
    58  Cl    c    10.578416    6.461335    9.239718    0.000000    1.485000
    59  Cl    c    13.405645    4.209797    3.837337    0.000000    1.485000
    60  Cl    c    10.568806   10.058709    3.838424    0.000000    1.485000
    61  Sc    c     8.393499   11.292312    3.639595    0.000000    3.000000
    62  Cl    c    -0.534145    0.667446    5.804022    0.000000    1.485000
    63  Sc    c    13.107520    2.728331    1.830958    0.000000    3.000000
    64  Cl    c     2.291484   -1.570057    0.401630    0.000000    1.485000
    65  Sc    c     7.443866   10.833527    7.244312    0.000000    3.000000
    66  Cl    c    12.352554    3.704314    7.833195    0.000000    1.485000
    67  Cl    c     9.524867    9.562575    7.837669    0.000000    1.485000
    68  Cl    c     7.665493   -2.185381    7.838018    0.000000    1.485000
    69  Sc    c     3.721747    9.053312   -1.844927    0.000000    3.000000
    70  Cl    c     4.104312    2.908166   11.247020    0.000000    1.485000
    71  Sc    c     5.591245    6.359775   -3.642752    0.000000    3.000000
    72  Cl    c     2.043730    9.569049    7.826872    0.000000    1.485000
    73  Cl    c     9.808071   -1.543847    0.410926    0.000000    1.485000
    74  Sc    c    11.221255    1.817425    9.045090    0.000000    3.000000
    75  Sc    c     0.912182    7.724217    9.082272    0.000000    3.000000
    76  Sc    c     8.512427   -3.169018    1.806369    0.000000    3.000000
    77  Cl    c     0.495380    9.923792    1.572290    0.000000    1.485000
    78  Cl    c     6.277732    1.649199   -3.952345    0.000000    1.485000
    79  Sc    c    -1.924586    2.683656    1.791780    0.000000    3.000000
    80  Sc    c    -0.951136   -0.463626    3.605760    0.000000    3.000000
    81  Cl    c    12.682724    1.616882   -0.375564    0.000000    1.485000
    82  Cl    c     6.308688   12.542168    3.022486    0.000000    1.485000
    83  Cl    c     2.342942    0.168463   10.486171    0.000000    1.485000
    84  Cl    c     4.450558   -2.850977    8.476484    0.000000    1.485000
    85  Cl    c    -0.464870    9.708804    5.034774    0.000000    1.485000
    86  Cl    c     7.322886   -1.437526   -2.403255    0.000000    1.485000
    87  Cl    c     5.255763   12.039671    7.051481    0.000000    1.485000
    88  Cl    c     9.849997    0.243115   10.433463    0.000000    1.485000
    89  Sc    c     0.837535   11.334499    3.643095    0.000000    3.000000
    90  Sc    c     8.459832    0.410167   -3.653030    0.000000    3.000000
    91  Cl    c     3.396051    7.548832   -3.820254    0.000000    1.485000
    92  Cl    c    11.969526    4.453289   -2.376704    0.000000    1.485000
    93  Sc    c    -0.954607    3.152864   -1.810457    0.000000    3.000000
    94  Cl    c     0.197023    5.048967   -2.977316    0.000000    1.485000
    95  Cl    c     3.021343   -0.790343   -2.976549    0.000000    1.485000
    96  Cl    c     8.798386   12.410876    5.843666    0.000000    1.485000
    97  Cl    c    11.619684   10.174941    0.437311    0.000000    1.485000
    98  Cl    c     8.082293    2.579802   12.448054    0.000000    1.485000
    99  Sc    c     0.934432   -3.162129    1.798662    0.000000    3.000000
   100  Sc    c    11.228447    9.049568   -1.771937    0.000000    3.000000
   101  Cl    c    -2.632141    7.285853    2.408678    0.000000    1.485000
   102  Cl    c     3.025456   -4.401670    2.415038    0.000000    1.485000
   103  Cl    c     8.794141    8.805641   11.252033    0.000000    1.485000
   104  Cl    c    14.443678    4.325241    0.438764    0.000000    1.485000
   105  Cl    c    12.682494   -1.994970    5.027941    0.000000    1.485000
   106  Cl    c     9.142808   10.305366   -2.376826    0.000000    1.485000
   107  Cl    c    -0.421792    6.099050   10.436114    0.000000    1.485000
   108  Cl    c     7.342396   -5.014039    3.019892    0.000000    1.485000
   109  Sc    c    14.059859   -0.420434    3.640062    0.000000    3.000000
   110  Cl    c    -2.627157    3.678234    7.811264    0.000000    1.485000
   111  Cl    c     0.195198   -2.168498    7.810085    0.000000    1.485000
   112  Sc    c    13.102158   -0.882528    7.238692    0.000000    3.000000
   113  Sc    c     7.442413    7.216354   12.652356    0.000000    3.000000
   114  Cl    c    11.611509    2.953668   11.241170    0.000000    1.485000
   115  Cl    c    14.444633    0.713563    5.842130    0.000000    1.485000
   116  Sc    c    -0.053420   10.841153    7.245186    0.000000    3.000000
   117  Sc    c     9.419149   -2.695241   -1.795823    0.000000    3.000000
   118  Cl    c    -3.034716    0.793883    2.996794    0.000000    1.485000
   119  Cl    c    -2.311983    1.570043   -0.415797    0.000000    1.485000
   120  Cl    c     1.314937   12.412674    5.846953    0.000000    1.485000
   121  Cl    c    10.546308   -0.793528   -2.980168    0.000000    1.485000
   122  Cl    c     6.959758    7.935284   -5.008909    0.000000    1.485000
   123  Cl    c     4.867083   10.933280   -3.014350    0.000000    1.485000
   124  Cl    c     5.260052    8.433616   12.450465    0.000000    1.485000
   125  Cl    c    -1.175835    8.942007    8.437058    0.000000    1.485000
   126  Cl    c    -1.245197   -1.936219    1.599821    0.000000    1.485000
   127  Sc    c     0.930734    0.447160   -3.614761    0.000000    3.000000
   128  Cl    c     8.058337   -4.268383   -0.392959    0.000000    1.485000
   129  Cl    c     1.641574   10.318350   -2.399496    0.000000    1.485000
   130  Cl    c     5.218866    5.202539   -5.822084    0.000000    1.485000
   131  Cl    c    10.910572    7.550458   -3.758781    0.000000    1.485000
   132  Sc    c    -3.778001    5.403549    3.606346    0.000000    3.000000
   133  Cl    c    -3.339411    6.513827    5.810476    0.000000    1.485000
   134  Sc    c     1.885865   -2.702510   -1.807483    0.000000    3.000000
   135  Sc    c     2.757914    1.331493   12.683938    0.000000    3.000000
   136  Sc    c     6.565122   -4.098272    9.056687    0.000000    3.000000
   137  Cl    c     2.299101    2.038461   -4.988047    0.000000    1.485000
   138  Cl    c    15.186541    1.472436    2.439623    0.000000    1.485000
   139  Cl    c     9.527511   13.168051    2.433080    0.000000    1.485000
   140  Cl    c     1.319939    8.821152   11.283060    0.000000    1.485000
   141  Cl    c    10.576931   -4.421301    2.430963    0.000000    1.485000
   142  Cl    c     2.022348   13.172784    2.433467    0.000000    1.485000
   143  Cl    c     9.798436    2.042839   -4.993398    0.000000    1.485000
   144  Cl    c    -1.569166    0.583393    9.194679    0.000000    1.485000
   145  Sc    c    -1.895308   -0.918034    7.211154    0.000000    3.000000
   146  Cl    c    -1.573280    7.791897   -1.599414    0.000000    1.485000
   147  Cl    c    13.403711    0.605674    9.236333    0.000000    1.485000
   148  Cl    c     4.078556   -3.898525   -1.604629    0.000000    1.485000
   149  Cl    c     7.749429   12.306000    9.245473    0.000000    1.485000
   150  Cl    c    13.401917    7.821831   -1.562961    0.000000    1.485000
   151  Sc    c    14.057956    3.195199   -1.770364    0.000000    3.000000
   152  Cl    c     6.306045    5.318450   13.831379    0.000000    1.485000
   153  Cl    c     7.043815   13.316567   -0.369906    0.000000    1.485000
   154  Cl    c    13.745409   -1.901789    1.641332    0.000000    1.485000
   155  Cl    c    -4.089923    3.918829    1.603947    0.000000    1.485000
   156  Sc    c    10.267346    1.360979   12.646147    0.000000    3.000000
   157  Cl    c     2.298231   -5.174485    5.809848    0.000000    1.485000
   158  Cl    c     0.592971    2.567527   12.449019    0.000000    1.485000
   159  Cl    c     6.260410   -5.542232    7.031954    0.000000    1.485000
   160  Cl    c     9.524020    5.949729   13.239470    0.000000    1.485000
   161  Cl    c     4.853973    0.080579   13.242766    0.000000    1.485000
   162  Cl    c    11.965240   -2.770193    8.430690    0.000000    1.485000
   163  Cl    c    13.814439    8.955311    8.450133    0.000000    1.485000
   164  Cl    c     2.039093    5.939419   13.239898    0.000000    1.485000
   165  Cl    c    14.540935    9.727914    5.052656    0.000000    1.485000
   166  Cl    c     6.957815   -2.932959   11.236256    0.000000    1.485000
   167  Cl    c     4.213719   11.946897   10.440614    0.000000    1.485000
   168  Cl    c     9.795781   -5.162783    5.830643    0.000000    1.485000
   169  Cl    c    -2.293025   -2.046695    5.004356    0.000000    1.485000
   170  Cl    c    -0.196386   -1.436602   -2.406866    0.000000    1.485000
   171  Cl    c    15.588340    6.211559    7.065497    0.000000    1.485000
   172  Sc    c    13.107590    6.346502   -3.574068    0.000000    3.000000
   173  Sc    c     7.447525   14.444744    1.833794    0.000000    3.000000
   174  Sc    c     5.568800   13.537053    9.050509    0.000000    3.000000
   175  Cl    c    -1.249327    1.669183   -3.805744    0.000000    1.485000
   176  Cl    c    -3.024718    4.428524   -2.401113    0.000000    1.485000
   177  Cl    c     0.534542   -4.281277   -0.405814    0.000000    1.485000
   178  Sc    c     8.393609    4.064208   14.452180    0.000000    3.000000
   179  Cl    c    12.762060   12.062620    7.066964    0.000000    1.485000
   180  Sc    c    -1.886145    6.315753   -3.606061    0.000000    3.000000
   181  Cl    c    -1.218945   12.606919    3.034928    0.000000    1.485000
   182  Cl    c     8.078159   -0.693068   -5.854938    0.000000    1.485000
   183  Sc    c    -0.043211    7.211631   12.663473    0.000000    3.000000
   184  Cl    c    14.536715    6.116659   10.454567    0.000000    1.485000
   185  Sc    c     9.416912   -6.306557    3.633512    0.000000    3.000000
   186  Cl    c    16.643165    6.715774    3.047654    0.000000    1.485000
   187  Cl    c    -5.112709    3.811143    5.004377    0.000000    1.485000
   188  Cl    c    -0.190051   -5.041421    3.007461    0.000000    1.485000
   189  Sc    c    -4.714490    4.941188    7.211873    0.000000    3.000000
   190  Cl    c    -4.068941    0.310168    7.008298    0.000000    1.485000
   191  Cl    c    13.746297    1.706812   -3.763984    0.000000    1.485000
   192  Sc    c    -3.765385    1.789337    9.015690    0.000000    3.000000
   193  Sc    c     1.896367   -6.307481    3.608764    0.000000    3.000000
   194  Cl    c     3.087221    2.843711   14.649251    0.000000    1.485000
   195  Cl    c     0.263445   12.310035    9.242886    0.000000    1.485000
   196  Cl    c     8.763040   -5.277884    9.224015    0.000000    1.485000
   197  Cl    c     3.092376   13.666193   -1.585604    0.000000    1.485000
   198  Cl    c    11.595038   -3.904931   -1.587492    0.000000    1.485000
   199  Cl    c     8.749650    5.571276   -6.992436    0.000000    1.485000
   200  Sc    c     2.778366   12.216786   -3.604923    0.000000    3.000000
   201  Sc    c     6.578584    6.796910   -7.224593    0.000000    3.000000
   202  Cl    c    15.589652    9.820803    1.663584    0.000000    1.485000
   203  Cl    c    -3.337383   10.129512    0.413937    0.000000    1.485000
   204  Cl    c    -0.510040    7.890933   -4.988961    0.000000    1.485000
   205  Cl    c    17.364128    3.876126    5.050530    0.000000    1.485000
   206  Cl    c     9.134542   -0.530362   13.837017    0.000000    1.485000
   207  Cl    c    13.818033   12.568000    3.049505    0.000000    1.485000
   208  Cl    c    15.188472    5.088596   -2.959274    0.000000    1.485000
   209  Cl    c    12.362403   10.936158   -2.963387    0.000000    1.485000
   210  Cl    c     4.220020   15.560124    5.037460    0.000000    1.485000
   211  Sc    c    -4.718410    8.558566    1.801592    0.000000    3.000000
   212  Cl    c     3.430935   -3.286889   12.438556    0.000000    1.485000
   213  Cl    c     5.260509   15.654451    1.647387    0.000000    1.485000
   214  Sc    c     0.898543    4.057944   14.450816    0.000000    3.000000
   215  Sc    c    14.950707   10.850644    7.259982    0.000000    3.000000
   216  Cl    c    16.640220    3.105142    8.451471    0.000000    1.485000
   217  Sc    c     8.448280   -6.763374    7.222502    0.000000    3.000000
   218  Cl    c    -2.229599   12.051382    7.036948    0.000000    1.485000
   219  Cl    c     9.102757   -4.164587   -3.793998    0.000000    1.485000
   220  Cl    c    11.713339   11.967274   10.456525    0.000000    1.485000
   221  Sc    c    10.281441   12.203254   -3.571790    0.000000    3.000000
   222  Sc    c    15.901766    7.699830    9.064155    0.000000    3.000000
   223  Cl    c     3.485959   14.789687    8.431722    0.000000    1.485000
   224  Cl    c    12.701858    5.224413   -5.777400    0.000000    1.485000
   225  Cl    c    12.760075    8.453029   12.467948    0.000000    1.485000
   226  Cl    c    -4.394274    6.430302    9.203185    0.000000    1.485000
   227  Cl    c    -4.397976   10.037529    3.800753    0.000000    1.485000
   228  Cl    c     1.258977   -5.267254    9.198975    0.000000    1.485000
   229  Cl    c     5.207511   -5.666766   10.452031    0.000000    1.485000
   230  Cl    c     1.637174   -0.561024   13.869299    0.000000    1.485000
   231  Cl    c    10.579267    2.850370   14.638715    0.000000    1.485000
   232  Cl    c     7.753168    8.700422   14.646206    0.000000    1.485000
   233  Cl    c     4.087614   -7.509018    3.798009    0.000000    1.485000
   234  Cl    c    16.239061   -1.635009    3.836753    0.000000    1.485000
   235  Cl    c     1.260840    5.557451   -7.002917    0.000000    1.485000
   236  Cl    c    16.234393    1.975600   -1.563789    0.000000    1.485000
   237  Cl    c    -0.434188   13.314758   -0.380128    0.000000    1.485000
   238  Cl    c     4.086198   -0.289797   -7.000477    0.000000    1.485000
   239  Cl    c     7.755429   15.913409    3.840787    0.000000    1.485000
   240  Cl    c     7.329887    2.202062   -7.795949    0.000000    1.485000
   241  Cl    c    10.583001   13.673493   -1.561747    0.000000    1.485000
   242  Sc    c    -0.934773   -4.065970    9.014150    0.000000    3.000000
   243  Cl    c    -3.351824    2.913905   11.215975    0.000000    1.485000
   244  Cl    c    15.183985   -2.138618    7.838891    0.000000    1.485000
   245  Cl    c     5.135132   -3.804141   -4.989823    0.000000    1.485000
   246  Cl    c     6.705671   15.413523    7.841730    0.000000    1.485000
   247  Sc    c    -0.045541   14.468412    1.810324    0.000000    3.000000
   248  Sc    c     9.420760    0.941246   -7.224765    0.000000    3.000000
   249  Cl    c    -5.852044    6.668701    3.001678    0.000000    1.485000
   250  Cl    c     0.545042   -0.670454   -5.818344    0.000000    1.485000
   251  Sc    c     5.569684    9.922597   14.454856    0.000000    3.000000
   252  Cl    c    -0.529496   -2.934429   11.213185    0.000000    1.485000
   253  Cl    c     1.593660   -4.177647   -3.807730    0.000000    1.485000
   254  Cl    c    12.351098    0.102028   13.238340    0.000000    1.485000
   255  Cl    c     5.130931   -7.415817    0.411777    0.000000    1.485000
   256  Cl    c     6.702840   11.803698   13.244202    0.000000    1.485000
   257  Cl    c     8.090685   13.409984   -3.758171    0.000000    1.485000
   258  Sc    c    -3.759443    9.018557   -1.796616    0.000000    3.000000
   259  Sc    c     1.902228    0.923454   -7.209049    0.000000    3.000000
   260  Cl    c     7.035426    2.481148   15.843139    0.000000    1.485000
   261  Cl    c    14.801514   -1.392791   -2.373306    0.000000    1.485000
   262  Cl    c    -3.020924   -2.804903    8.409072    0.000000    1.485000
   263  Cl    c    -5.108329    7.426721   -0.401104    0.000000    1.485000
   264  Sc    c    15.904678   11.312030    3.659285    0.000000    3.000000
   265  Cl    c    -1.184132    5.311772   13.827995    0.000000    1.485000
   266  Cl    c     8.033662   -7.874763    5.012819    0.000000    1.485000
   267  Sc    c     3.780256   -5.397962   -3.604046    0.000000    3.000000
   268  Cl    c     4.488394    8.052361   -7.797507    0.000000    1.485000
   269  Cl    c     2.385125   11.064982   -5.792230    0.000000    1.485000
   270  Sc    c     8.406677   14.904732   -1.764889    0.000000    3.000000
   271  Sc    c    17.776915    4.996273    7.258045    0.000000    3.000000
   272  Sc    c     3.735924   -1.818246   14.451366    0.000000    3.000000
   273  Sc    c     5.607982   -4.515433   12.649802    0.000000    3.000000
   274  Cl    c     3.484141   11.174461   13.835904    0.000000    1.485000
   275  Cl    c    10.913565   -3.268651   12.447224    0.000000    1.485000
   276  Cl    c     9.880702   11.075683   -5.773894    0.000000    1.485000
   277  Cl    c    -1.236519   -5.540070    7.006925    0.000000    1.485000
   278  Sc    c     0.943152   -6.765995    7.209160    0.000000    3.000000
   279  Sc    c    15.936988   -3.120267    1.832975    0.000000    3.000000
   280  Cl    c    -2.216815    8.430182   12.434695    0.000000    1.485000
   281  Sc    c     4.619906   13.072387   12.651159    0.000000    3.000000
   282  Cl    c     9.098166   -7.760227    1.619879    0.000000    1.485000
   283  Cl    c    17.369873    7.486246   -0.352608    0.000000    1.485000
   284  Cl    c     3.040163    2.822636   -8.384139    0.000000    1.485000
   285  Cl    c    10.987410   14.807674    8.452353    0.000000    1.485000
   286  Cl    c     8.809993   16.023053    0.443927    0.000000    1.485000
   287  Cl    c    -5.845358    3.050423    8.404594    0.000000    1.485000
   288  Cl    c    -2.273895    5.184476   -5.805259    0.000000    1.485000
   289  Sc    c    14.054607   -4.030347    9.044195    0.000000    3.000000
   290  Cl    c    18.416215    3.970159    1.660078    0.000000    1.485000
   291  Sc    c    17.779634    8.608424    1.853112    0.000000    3.000000
   292  Cl    c    13.809719    5.344205   13.854342    0.000000    1.485000
   293  Cl    c    -2.615955   10.902890   -2.988289    0.000000    1.485000
   294  Cl    c     4.215399    8.333758   15.844032    0.000000    1.485000
   295  Cl    c     5.865527   -6.643539   -2.980471    0.000000    1.485000
   296  Cl    c    14.800517   -5.004619    3.033278    0.000000    1.485000
   297  Cl    c     5.977568   14.655271   11.253218    0.000000    1.485000
   298  Cl    c    14.457174    7.936845   -4.961153    0.000000    1.485000
   299  Cl    c    11.717307   15.578634    5.055725    0.000000    1.485000
   300  Sc    c    18.730225    5.457579    3.657473    0.000000    3.000000
   301  Cl    c    13.746988   -5.508969    7.041022    0.000000    1.485000
   302  Sc    c    13.073996   13.553488    9.065117    0.000000    3.000000
   303  Cl    c     1.594506   -7.779219    1.603551    0.000000    1.485000
   304  Sc    c     5.577816   17.148712    3.644105    0.000000    3.000000
   305  Cl    c    -5.186095   -1.586167    0.393406    0.000000    1.485000
   306  Cl    c     0.262407    8.694976   14.654119    0.000000    1.485000
   307  Cl    c    -4.065291    7.533464   -3.796452    0.000000    1.485000
   308  Cl    c     5.928067   -3.017999   14.635114    0.000000    1.485000
   309  Sc    c    14.946268    7.237104   12.664073    0.000000    3.000000
   310  Cl    c     0.276448   15.924163    3.822759    0.000000    1.485000
   311  Cl    c    17.032751    9.587384    7.862022    0.000000    1.485000
   312  Cl    c    11.594359   -7.519768    3.822786    0.000000    1.485000
   313  Sc    c    15.939564    0.494177   -3.572590    0.000000    3.000000
   314  Sc    c     4.624524   16.687749    7.243931    0.000000    3.000000
   315  Cl    c     5.920372   11.417016   -6.981396    0.000000    1.485000
   316  Cl    c    11.596668   -0.274668   -6.996898    0.000000    1.485000
   317  Sc    c     0.914402   14.904805   -1.782451    0.000000    3.000000
   318  Cl    c    15.585641    2.602619   12.467157    0.000000    1.485000
   319  Cl    c     0.591981   13.418727   -3.781559    0.000000    1.485000
   320  Cl    c     6.266463    5.298674   -9.204897    0.000000    1.485000
   321  Sc    c     8.458318    4.091718   -9.004978    0.000000    3.000000
   322  Cl    c     1.338771   16.025584    0.421274    0.000000    1.485000
   323  Cl    c     4.150649   13.782992   -4.990416    0.000000    1.485000
   324  Cl    c    10.549587    2.848664   -8.386821    0.000000    1.485000
   325  Cl    c     7.709820    8.693117   -8.396364    0.000000    1.485000
   326  Cl    c    -5.448310    9.531082    7.814968    0.000000    1.485000
   327  Cl    c     3.029158   -8.018822    7.812746    0.000000    1.485000
   328  Cl    c     8.794574    5.193984   16.650378    0.000000    1.485000
   329  Cl    c    17.279704   -1.524053    0.440519    0.000000    1.485000
   330  Sc    c    -0.923105    6.777066   -7.204013    0.000000    3.000000
   331  Sc    c    -1.924916   13.537018    9.045507    0.000000    3.000000
   332  Cl    c    10.984339   11.195491   13.854086    0.000000    1.485000
   333  Sc    c    11.290023   -5.390761   -3.597665    0.000000    3.000000
   334  Cl    c    14.546852   13.337957   -0.348850    0.000000    1.485000
   335  Cl    c     0.540030   -7.887908    5.001957    0.000000    1.485000
   336  Cl    c    -0.179084    2.188362   -7.801736    0.000000    1.485000
   337  Sc    c    11.223808   -1.787248   14.450414    0.000000    3.000000
   338  Cl    c    -6.888644    6.165133    7.009596    0.000000    1.485000
   339  Cl    c    -2.627698    0.070683   13.214216    0.000000    1.485000
   340  Cl    c    14.446930   -2.895322   11.243633    0.000000    1.485000
   341  Cl    c    -4.458607   -0.814476   -3.004077    0.000000    1.485000
   342  Cl    c    16.303725   12.436461    5.864590    0.000000    1.485000
   343  Cl    c    -5.111853    0.201661   10.408067    0.000000    1.485000
   344  Cl    c     2.646114   -7.276160   -2.395727    0.000000    1.485000
   345  Cl    c    15.521425   -4.235726   -0.373731    0.000000    1.485000
   346  Cl    c    18.414941    0.361823    7.063071    0.000000    1.485000
   347  Cl    c     6.323682   16.162295   -2.369289    0.000000    1.485000
   348  Cl    c    -6.233727   -1.680224    3.782121    0.000000    1.485000
   349  Cl    c    -6.232216    1.926868   -1.618431    0.000000    1.485000
   350  Cl    c    -3.405298   -3.920141   -1.619869    0.000000    1.485000
   351  Cl    c    18.082732    6.479656    9.258546    0.000000    1.485000
   352  Cl    c    15.255710   12.331629    9.260806    0.000000    1.485000
   353  Cl    c    18.084425   10.089332    3.856047    0.000000    1.485000
   354  Sc    c     3.775966   -9.007820    1.804152    0.000000    3.000000
   355  Cl    c    12.765006   15.674831    1.665739    0.000000    1.485000
   356  Cl    c    -7.287097    1.422929    2.397084    0.000000    1.485000
   357  Cl    c    -4.460865   -4.425153    2.396276    0.000000    1.485000
   358  Cl    c    19.127346    6.584525    5.862252    0.000000    1.485000
   359  Cl    c    16.299417    8.824904   11.268076    0.000000    1.485000
   360  Cl    c    12.688481   -5.608589   10.435022    0.000000    1.485000
   361  Cl    c     1.303093    5.184794   16.646851    0.000000    1.485000
   362  Cl    c    10.530438   -8.015769    7.822568    0.000000    1.485000
   363  Cl    c    -0.781593   15.408282    7.834774    0.000000    1.485000
   364  Cl    c    11.982644    8.069979   -7.774988    0.000000    1.485000
   365  Cl    c    12.631548   -3.788212   -4.981328    0.000000    1.485000
   366  Cl    c    -0.451534    2.464258   15.831851    0.000000    1.485000
   367  Cl    c    -3.267179   11.932397   10.426687    0.000000    1.485000
   368  Cl    c     7.306169   -8.639521    8.421521    0.000000    1.485000
   369  Cl    c    10.143793   -7.261037   -2.387462    0.000000    1.485000
   370  Cl    c     2.437633   14.288255   12.452564    0.000000    1.485000
   371  Sc    c     0.953616    4.075801   -9.009546    0.000000    3.000000
   372  Cl    c    17.362534    0.264678   10.454911    0.000000    1.485000
   373  Cl    c     7.695924   -5.767698   13.237922    0.000000    1.485000
   374  Sc    c    14.953569   14.463196    1.856078    0.000000    3.000000
   375  Cl    c     4.137469   -0.678917   16.643690    0.000000    1.485000
   376  Cl    c    -0.785734   11.793948   13.233493    0.000000    1.485000
   377  Cl    c    16.647934   10.328190   -2.352694    0.000000    1.485000
   378  Cl    c    12.623887   -7.397281    0.420698    0.000000    1.485000
   379  Cl    c     9.934806   14.305924   12.468513    0.000000    1.485000
   380  Sc    c    14.067989    6.810338   -7.171930    0.000000    3.000000
   381  Sc    c    -6.586228    7.646608    9.017731    0.000000    3.000000
   382  Sc    c     4.730105   -8.544387   -1.794341    0.000000    3.000000
   383  Cl    c    19.469613    0.865428    3.048073    0.000000    1.485000
   384  Sc    c    12.120107   13.090805   12.665033    0.000000    3.000000
   385  Cl    c    11.711115    8.354547   15.859430    0.000000    1.485000
   386  Sc    c    18.727134    1.846212    9.063081    0.000000    3.000000
   387  Sc    c    13.070726    9.940477   14.468771    0.000000    3.000000
   388  Sc    c     3.745519   12.648026   -7.194667    0.000000    3.000000
   389  Sc    c     5.617622    9.951007   -8.995786    0.000000    3.000000
   390  Cl    c     5.262288    4.823655   17.854556    0.000000    1.485000
   391  Sc    c    -4.714257    1.330124   12.616797    0.000000    3.000000
   392  Sc    c    16.888556   -2.654073   -1.765870    0.000000    3.000000
   393  Cl    c    -6.894116    9.779503    1.607281    0.000000    1.485000
   394  Cl    c     0.214027    8.668044   -8.392210    0.000000    1.485000
   395  Cl    c    -2.223269   15.679395    1.619330    0.000000    1.485000
   396  Cl    c     5.871451   -3.028777   -8.383233    0.000000    1.485000
   397  Cl    c     9.112210   -0.541092   -9.214951    0.000000    1.485000
   398  Cl    c     5.988341   18.265584    5.850035    0.000000    1.485000
   399  Cl    c    11.639483   13.787260   -4.959186    0.000000    1.485000
   400  Sc    c    13.099818   -4.487452   12.643446    0.000000    3.000000
   401  Sc    c     7.445203    3.604526   18.053506    0.000000    3.000000
   402  Sc    c     3.785324   -1.779384   -9.004908    0.000000    3.000000
   403  Cl    c    -8.008575    4.263318    0.396076    0.000000    1.485000
   404  Sc    c    -6.585912   11.263151    3.611855    0.000000    3.000000
   405  Cl    c    -5.181957    2.024965   -5.007610    0.000000    1.485000
   406  Sc    c    -1.924151    9.915701   14.443289    0.000000    3.000000
   407  Cl    c    19.861566    7.346872    2.458662    0.000000    1.485000
   408  Sc    c     4.735942   -4.928550   -7.201678    0.000000    3.000000
   409  Sc    c    12.122505   16.704321    7.262130    0.000000    3.000000
   410  Sc    c    11.279229   -8.995408    1.811140    0.000000    3.000000
   411  Cl    c    17.036376   13.199508    2.460121    0.000000    1.485000
   412  Cl    c    -2.286466   -5.649965   10.406993    0.000000    1.485000
   413  Cl    c     2.652186   -3.661680   -7.795843    0.000000    1.485000
   414  Cl    c    15.533193   -0.626189   -5.777588    0.000000    1.485000
   415  Cl    c     3.495348   18.406827    3.036672    0.000000    1.485000
   416  Cl    c     2.441877   17.903578    7.048840    0.000000    1.485000
   417  Cl    c    -8.014700    0.655302    5.797016    0.000000    1.485000
   418  Cl    c    -2.356697   -3.824331   -5.010074    0.000000    1.485000
   419  Cl    c    19.858783    3.735386    7.861356    0.000000    1.485000
   420  Cl    c    -5.446763   13.146439    2.411564    0.000000    1.485000
   421  Cl    c     1.600651   -0.560174   -9.204608    0.000000    1.485000
   422  Cl    c     5.860292  -10.262727    2.411249    0.000000    1.485000
   423  Cl    c     5.974729   11.045887   16.655935    0.000000    1.485000
   424  Cl    c    17.288374    2.086439   -4.961623    0.000000    1.485000
   425  Cl    c    14.205851   15.439500    7.863212    0.000000    1.485000
   426  Sc    c    -5.594724   -2.709624   -1.813519    0.000000    3.000000
   427  Sc    c    15.896157    4.087031   14.468747    0.000000    3.000000
   428  Sc    c    -6.548907   -3.171528    1.786536    0.000000    3.000000
   429  Cl    c    -5.837053   10.281232   -2.397571    0.000000    1.485000
   430  Sc    c    -1.886395   -4.522474   12.613838    0.000000    3.000000
   431  Cl    c     2.381109   -3.402535   15.837007    0.000000    1.485000
   432  Cl    c     3.379886   -6.516814   -5.807972    0.000000    1.485000
   433  Cl    c     4.472597   -6.398637   13.842376    0.000000    1.485000
   434  Cl    c    -3.254984   15.541666    5.023772    0.000000    1.485000
   435  Cl    c    10.149735   -3.643051   -7.784502    0.000000    1.485000
   436  Cl    c     9.936345   17.918373    7.067271    0.000000    1.485000
   437  Cl    c    -5.189838   -5.194836    5.796179    0.000000    1.485000
   438  Cl    c    -2.360634   -7.435148    0.392007    0.000000    1.485000
   439  Cl    c    17.028383    5.974856   13.264679    0.000000    1.485000
   440  Cl    c    14.202964   11.826877   13.264908    0.000000    1.485000
   441  Cl    c    -6.167908   12.376071    5.819001    0.000000    1.485000
   442  Cl    c     9.865878   -3.370127   15.843114    0.000000    1.485000
   443  Cl    c    18.021180   -0.760659   -2.958612    0.000000    1.485000
   444  Cl    c     2.312723    5.660396  -10.398151    0.000000    1.485000
   445  Cl    c    14.810748    2.220077   -7.772306    0.000000    1.485000
   446  Cl    c     9.543562   16.788717   -2.960321    0.000000    1.485000
   447  Cl    c    -1.512783   14.649038   11.248885    0.000000    1.485000
   448  Sc    c    18.734262    9.069853   -1.746819    0.000000    3.000000
   449  Cl    c    13.368703   -6.642263   -2.979846    0.000000    1.485000
   450  Cl    c     9.804692    5.685141  -10.389124    0.000000    1.485000
   451  Sc    c    13.078068   17.165179    3.663050    0.000000    3.000000
   452  Cl    c     2.053014   16.780433   -2.984740    0.000000    1.485000
   453  Cl    c    -5.452611    5.921863   13.218250    0.000000    1.485000
   454  Cl    c     0.200498   -5.779053   13.213459    0.000000    1.485000
   455  Cl    c    11.623680   -0.656446   16.650077    0.000000    1.485000
   456  Cl    c    17.284174   -5.136403    5.843627    0.000000    1.485000
   457  Sc    c    11.243691   12.663839   -7.168521    0.000000    3.000000
   458  Cl    c    -7.280312    5.034218   -3.002467    0.000000    1.485000
   459  Cl    c    -6.175328    8.766612   11.221860    0.000000    1.485000
   460  Sc    c    20.605392    2.754888    1.851122    0.000000    3.000000
   461  Cl    c    -1.630202   -6.665262   -3.006055    0.000000    1.485000
   462  Cl    c    14.535495    2.502223   15.859830    0.000000    1.485000
   463  Cl    c    -1.231775    5.290042   -9.198906    0.000000    1.485000
   464  Cl    c    18.019533   -4.374899    2.440246    0.000000    1.485000
   465  Cl    c    19.131595   10.195653    0.459868    0.000000    1.485000
   466  Cl    c    19.473730    4.476353   -2.355261    0.000000    1.485000
   467  Cl    c    13.475022   14.676697   11.269449    0.000000    1.485000
   468  Cl    c     5.140404   -0.190082  -10.394558    0.000000    1.485000
   469  Cl    c     6.714592   19.029727    2.442763    0.000000    1.485000
   470  Cl    c    -7.930841    9.667929    5.004503    0.000000    1.485000
   471  Cl    c    -0.188972   -8.650477    8.407742    0.000000    1.485000
   472  Cl    c     3.428655   11.156411   -9.185289    0.000000    1.485000
   473  Cl    c    -9.057475    4.168689    3.785810    0.000000    1.485000
   474  Cl    c    -4.399321    2.819885   14.609829    0.000000    1.485000
   475  Sc    c    -6.546252    0.440055   -3.618243    0.000000    3.000000
   476  Cl    c    -3.406834   -7.531664    3.782615    0.000000    1.485000
   477  Cl    c    -1.571982   -3.030515   14.605884    0.000000    1.485000
   478  Cl    c    -3.401329   -0.309100   -7.019375    0.000000    1.485000
   479  Cl    c    -4.388597   13.646798   -1.596945    0.000000    1.485000
   480  Cl    c    15.253464    8.720931   14.662668    0.000000    1.485000
   481  Cl    c    20.910323    4.237645    3.853889    0.000000    1.485000
   482  Cl    c    13.410001   -2.997902   14.638852    0.000000    1.485000
   483  Cl    c    16.239125   -5.241027    9.238116    0.000000    1.485000
   484  Cl    c    -1.562361   11.408546   -7.000909    0.000000    1.485000
   485  Cl    c     4.931306   14.552062   14.649040    0.000000    1.485000
   486  Cl    c    15.258922   15.941858    3.859545    0.000000    1.485000
   487  Cl    c     4.934112   18.163044    9.245882    0.000000    1.485000
   488  Cl    c    18.421709    7.581522   -3.743774    0.000000    1.485000
   489  Cl    c     6.914763   -9.757222   -1.599174    0.000000    1.485000
   490  Cl    c     6.919035   -6.144608   -7.002345    0.000000    1.485000
   491  Cl    c    16.246242    5.588842   -6.966635    0.000000    1.485000
   492  Cl    c    13.422198   11.440168   -6.965099    0.000000    1.485000
   493  Sc    c    17.772386    1.385930   12.662865    0.000000    3.000000
   494  Sc    c    -8.424170   -0.469084    3.592546    0.000000    3.000000
   495  Cl    c    20.196784    1.633682   -0.355297    0.000000    1.485000
   496  Sc    c    -1.911015   17.144606    3.638080    0.000000    3.000000
   497  Cl    c     8.091091   -1.026004   17.851313    0.000000    1.485000
   498  Sc    c    11.293300   -1.768358   -8.995308    0.000000    3.000000
   499  Cl    c    10.990875   18.418894    3.053079    0.000000    1.485000
   500  Cl    c    -3.004259    8.039519   -7.798331    0.000000    1.485000
   501  Cl    c    -4.066075   -3.300074   12.411778    0.000000    1.485000
   502  Cl    c     3.368883  -10.125487   -0.402057    0.000000    1.485000
   503  Sc    c    16.888775   -6.266801    3.640199    0.000000    3.000000
   504  Cl    c    -7.288388   -2.184706    7.798350    0.000000    1.485000
   505  Cl    c    -4.006069   14.784502    8.425447    0.000000    1.485000
   506  Sc    c    -4.700673   12.169618   -3.601315    0.000000    3.000000
   507  Sc    c    15.934812   -6.728136    7.238512    0.000000    3.000000
   508  Cl    c    19.124245    2.974325   11.266482    0.000000    1.485000
   509  Cl    c    -1.169322   16.158751   -2.377280    0.000000    1.485000
   510  Sc    c     4.620979    9.458092   18.054643    0.000000    3.000000
   511  Cl    c    10.872523   -6.502807   -5.800726    0.000000    1.485000
   512  Cl    c    13.757161    5.321642   -9.166365    0.000000    1.485000
   513  Cl    c     8.056590    2.960257  -11.200108    0.000000    1.485000
   514  Sc    c    -2.871984   13.056950   12.636677    0.000000    3.000000
   515  Sc    c    12.226460   -8.529820   -1.782808    0.000000    3.000000
   516  Sc    c    -7.535132   10.794813    7.211416    0.000000    3.000000
   517  Cl    c     9.529541    2.343822   18.648479    0.000000    1.485000
   518  Cl    c     2.297618   -8.784270   11.212493    0.000000    1.485000
   519  Cl    c     6.705024    8.195532   18.650607    0.000000    1.485000
   520  Cl    c     5.127640  -11.026121    5.808430    0.000000    1.485000
   521  Cl    c    15.595120   13.433358   -3.739144    0.000000    1.485000
   522  Sc    c    -0.048909    3.588584   18.041683    0.000000    3.000000
   523  Cl    c    16.634495   -0.504940   13.854468    0.000000    1.485000
   524  Sc    c     9.392268   -9.902916    9.029542    0.000000    3.000000
   525  Cl    c     2.037694    2.327806   18.631224    0.000000    1.485000
   526  Cl    c     9.787987   -8.765394   11.227871    0.000000    1.485000
   527  Cl    c     8.888172   17.817579   10.456364    0.000000    1.485000
   528  Sc    c    -8.419956    3.142986   -1.811578    0.000000    3.000000
   529  Cl    c    -7.933093    6.054851   10.408847    0.000000    1.485000
   530  Cl    c    15.523827   -7.847501    5.031528    0.000000    1.485000
   531  Cl    c     2.641815  -10.889859    3.005529    0.000000    1.485000
   532  Cl    c     9.157162   13.920917   -7.768570    0.000000    1.485000
   533  Sc    c    -9.374192    2.680786    1.788342    0.000000    3.000000
   534  Cl    c    -6.891753    2.553072   12.413747    0.000000    1.485000
   535  Sc    c    -3.716618   -5.410806   -3.618025    0.000000    3.000000
   536  Cl    c    16.578187   -4.136649   -3.765044    0.000000    1.485000
   537  Sc    c    -3.762140   -1.820192   14.417160    0.000000    3.000000
   538  Sc    c     1.896238   -9.915638    9.011050    0.000000    3.000000
   539  Cl    c    10.930634   11.173480   -9.162470    0.000000    1.485000
   540  Sc    c    -5.595171   -6.320010    3.591324    0.000000    3.000000
   541  Cl    c    20.191864   -1.976041    5.049899    0.000000    1.485000
   542  Cl    c     6.311973    1.712633   19.244694    0.000000    1.485000
   543  Sc    c    -2.866606   16.673548    7.229035    0.000000    3.000000
   544  Sc    c    12.232118   -4.913590   -7.190736    0.000000    3.000000
   545  Cl    c    12.756606    4.841030   17.868198    0.000000    1.485000
   546  Cl    c    13.820775   16.178670   -2.350241    0.000000    1.485000
   547  Cl    c     4.230911   19.168109   -0.361815    0.000000    1.485000
   548  Cl    c    -3.274267    8.318851   15.824466    0.000000    1.485000
   549  Cl    c    10.134834  -10.871526    3.012436    0.000000    1.485000
   550  Sc    c    15.908448   14.923663   -1.743430    0.000000    3.000000
   551  Cl    c    -4.008328   11.163455   13.823295    0.000000    1.485000
   552  Cl    c    10.860529  -10.109803   -0.393494    0.000000    1.485000
   553  Cl    c     1.660901   13.906879   -7.783788    0.000000    1.485000
   554  Cl    c     5.221774    8.814765  -11.191638    0.000000    1.485000
   555  Cl    c    11.965630   -6.375918   13.839140    0.000000    1.485000
   556  Sc    c    13.120081    9.962374   -8.972249    0.000000    3.000000
   557  Sc    c     7.461400   18.057911   -3.564735    0.000000    3.000000
   558  Cl    c     1.398763   17.797345   10.440682    0.000000    1.485000
   559  Cl    c     2.438637   10.675725   17.851999    0.000000    1.485000
   560  Cl    c     0.600989   -1.041128   17.830337    0.000000    1.485000
   561  Cl    c     6.254683   -9.130906   12.426347    0.000000    1.485000
   562  Sc    c    16.897271    0.958911   -7.170802    0.000000    3.000000
   563  Sc    c    20.602658   -0.855375    7.256715    0.000000    3.000000
   564  Sc    c     2.779468   -2.265840   18.040895    0.000000    3.000000
   565  Sc    c     6.562721   -7.661106   14.436963    0.000000    3.000000
   566  Cl    c    19.464171   -2.744941    8.450577    0.000000    1.485000
   567  Cl    c     8.884948   14.205060   15.859075    0.000000    1.485000
   568  Cl    c    -3.334676   13.748803   -4.990766    0.000000    1.485000
   569  Cl    c     3.486656    7.564407   19.243310    0.000000    1.485000
   570  Cl    c    15.202255    8.701683   -8.360849    0.000000    1.485000
   571  Cl    c     9.930637   10.693572   17.868901    0.000000    1.485000
   572  Cl    c    -7.677239   -1.447462   -2.416318    0.000000    1.485000
   573  Cl    c    -6.947121   -4.296151   -0.418714    0.000000    1.485000
   574  Cl    c     7.060460   16.926491   -5.766368    0.000000    1.485000
   575  Cl    c    -8.667800    8.902680    8.405713    0.000000    1.485000
   576  Cl    c     0.556805    2.946255  -11.208456    0.000000    1.485000
   577  Cl    c    -1.503659   18.259982    5.843364    0.000000    1.485000
   578  Sc    c     2.748519   15.777162   14.454772    0.000000    3.000000
   579  Cl    c    13.373052   -3.024582   -8.380875    0.000000    1.485000
   580  Cl    c     6.975653   11.536304  -10.378937    0.000000    1.485000
   581  Cl    c     4.884463   14.531857   -8.384995    0.000000    1.485000
   582  Cl    c    -8.728854   -1.949466    1.589388    0.000000    1.485000
   583  Sc    c    -1.872213    9.928975   -9.005105    0.000000    3.000000
   584  Cl    c    -4.450099    2.797974   -8.403832    0.000000    1.485000
   585  Cl    c    -1.624382   -3.051859   -8.403994    0.000000    1.485000
   586  Sc    c    17.784099   12.221043   -3.548523    0.000000    3.000000
   587  Cl    c    16.307866   16.048344    0.462669    0.000000    1.485000
   588  Cl    c    13.479138   18.288437    5.868021    0.000000    1.485000
   589  Cl    c    -5.846155   -0.560664   13.808389    0.000000    1.485000
   590  Cl    c    -5.096377   11.038464   -5.802145    0.000000    1.485000
   591  Sc    c     5.572727    6.308998   19.857344    0.000000    3.000000
   592  Cl    c    16.576042   -7.745911    1.639042    0.000000    1.485000
   593  Sc    c    10.274289   -2.246612   18.051481    0.000000    3.000000
   594  Cl    c     4.422911  -10.018166   -3.797472    0.000000    1.485000
   595  Cl    c    -2.228523    4.807841   17.833857    0.000000    1.485000
   596  Cl    c     9.081007  -11.375314    7.023765    0.000000    1.485000
   597  Cl    c    14.796824   -8.613653    8.434662    0.000000    1.485000
   598  Cl    c     1.395491   14.184691   15.843371    0.000000    1.485000
   599  Sc    c    15.946911    4.108401   -8.974085    0.000000    3.000000
   600  Sc    c     4.632164   20.300751    1.840347    0.000000    3.000000
   601  Sc    c    -5.589346    0.903929   -7.216976    0.000000    3.000000
   602  Sc    c    21.556659   -0.394357    3.657331    0.000000    3.000000
   603  Cl    c    -1.518511   11.036691   16.643942    0.000000    1.485000
   604  Cl    c    13.359851  -10.250119    2.418055    0.000000    1.485000
   605  Sc    c    10.244355   15.793480   14.469783    0.000000    3.000000
   606  Cl    c    -0.772407   19.023673    2.436655    0.000000    1.485000
   607  Cl    c    -9.059065    0.561364    9.186834    0.000000    1.485000
   608  Cl    c    12.642782   -0.175782  -10.381293    0.000000    1.485000
   609  Cl    c    -6.232910   -5.288758    9.184648    0.000000    1.485000
   610  Cl    c    -9.053346    7.781551   -1.614307    0.000000    1.485000
   611  Cl    c    -7.219935   12.277470    9.208685    0.000000    1.485000
   612  Sc    c    -7.539176    7.183199   12.617407    0.000000    3.000000
   613  Cl    c    -6.224835    5.540486   -7.017281    0.000000    1.485000
   614  Cl    c    18.079451    2.870061   14.661933    0.000000    1.485000
   615  Cl    c    20.908661    0.628184    9.257860    0.000000    1.485000
   616  Cl    c    -0.576334   -9.769668   -1.620686    0.000000    1.485000
   617  Cl    c     7.757791    5.092359   20.047396    0.000000    1.485000
   618  Cl    c     4.084880  -11.123293    9.200956    0.000000    1.485000
   619  Cl    c    -0.574269   -6.159996   -7.021549    0.000000    1.485000
   620  Cl    c    12.426737   14.571757   14.665123    0.000000    1.485000
   621  Cl    c    20.913507    7.847990   -1.547232    0.000000    1.485000
   622  Cl    c    12.428372   18.182770    9.263971    0.000000    1.485000
   623  Cl    c    19.067875   -3.871745   -1.565098    0.000000    1.485000
   624  Cl    c    18.088539   13.700946   -1.544676    0.000000    1.485000
   625  Cl    c     4.091402    3.315368  -12.401280    0.000000    1.485000
   626  Sc    c     2.752117   19.390860    9.051550    0.000000    3.000000
[...]
   1116 z         17.977195     17.972287    -0.004908    Cartesian   -0.03
   1117 x          6.413027      6.415315     0.002288    Cartesian    0.04
   1117 y         -9.121056     -9.114324     0.006732    Cartesian   -0.07
   1117 z         12.571316     12.568580    -0.002736    Cartesian   -0.02
   1118 x         -5.635118     -5.637087    -0.001968    Cartesian    0.03
   1118 y         -0.517994     -0.518192    -0.000198    Cartesian    0.04
   1118 z         13.771601     13.769512    -0.002089    Cartesian   -0.02
   1119 x         -3.454754     -3.449381     0.005373    Cartesian   -0.16
   1119 y         13.577716     13.573946    -0.003770    Cartesian   -0.03
   1119 z         -5.042806     -5.042577     0.000230    Cartesian   -0.00
   1120 x          6.867555      6.860603    -0.006952    Cartesian   -0.10
   1120 y         11.354873     11.359081     0.004208    Cartesian    0.04
   1120 z        -10.431449    -10.429709     0.001740    Cartesian   -0.02
   1121 x          4.674787      4.675370     0.000583    Cartesian    0.01
   1121 y         14.494761     14.488451    -0.006310    Cartesian   -0.04
   1121 z         -8.339212     -8.344718    -0.005506    Cartesian    0.07
   1122 x         19.672622     19.671038    -0.001584    Cartesian   -0.01
   1122 y         -2.705490     -2.703655     0.001836    Cartesian   -0.07
   1122 z          8.414458      8.412264    -0.002194    Cartesian   -0.03
   1123 x          8.998228      8.998168    -0.000060    Cartesian   -0.00
   1123 y         14.379633     14.379361    -0.000272    Cartesian   -0.00
   1123 z         15.914099     15.911404    -0.002695    Cartesian   -0.02
   1124 x          7.171819      7.173163     0.001344    Cartesian    0.02
   1124 y         17.104578     17.101004    -0.003575    Cartesian   -0.02
   1124 z         -5.716248     -5.712947     0.003301    Cartesian   -0.06
   1125 x          4.583057      4.583690     0.000633    Cartesian    0.01
   1125 y        -10.007937     -9.999954     0.007982    Cartesian   -0.08
   1125 z         -3.656124     -3.653863     0.002262    Cartesian   -0.06
   1126 x         -4.987581     -4.983216     0.004366    Cartesian   -0.09
   1126 y         11.216888     11.214129    -0.002759    Cartesian   -0.02
   1126 z         -5.749234     -5.748041     0.001193    Cartesian   -0.02
   1127 x         17.916550     17.917127     0.000577    Cartesian    0.00
   1127 y          2.851185      2.852936     0.001751    Cartesian    0.06
   1127 z         14.518481     14.519521     0.001040    Cartesian    0.01
   1128 x         20.746143     20.746157     0.000014    Cartesian    0.00
   1128 y          0.610668      0.611707     0.001038    Cartesian    0.17
   1128 z          9.114089      9.115726     0.001637    Cartesian    0.02
   1129 x         10.090772     10.091212     0.000440    Cartesian    0.00
   1129 y         10.711840     10.710310    -0.001530    Cartesian   -0.01
   1129 z         18.011666     18.009835    -0.001831    Cartesian   -0.01
   1130 x         12.264487     12.265205     0.000718    Cartesian    0.01
   1130 y         14.555873     14.554168    -0.001705    Cartesian   -0.01
   1130 z         14.521453     14.522198     0.000744    Cartesian    0.01
   1131 x          7.594242      7.595553     0.001312    Cartesian    0.02
   1131 y          5.074029      5.074363     0.000334    Cartesian    0.01
   1131 z         19.907124     19.904862    -0.002261    Cartesian   -0.01
   1132 x         -5.735690     -5.736940    -0.001249    Cartesian    0.02
   1132 y         -4.173267     -4.172565     0.000702    Cartesian   -0.02
   1132 z         -3.670388     -3.671798    -0.001411    Cartesian    0.04
   1133 x         -1.832551     -1.831592     0.000959    Cartesian   -0.05
   1133 y         -3.097617     -3.092762     0.004855    Cartesian   -0.16
   1133 z         -8.375170     -8.366840     0.008330    Cartesian   -0.10
   1134 x         -4.658582     -4.657071     0.001511    Cartesian   -0.03
   1134 y          2.754727      2.756627     0.001900    Cartesian    0.07
   1134 z         -8.373684     -8.366196     0.007488    Cartesian   -0.09
   1135 x         12.268049     12.267173    -0.000876    Cartesian   -0.01
   1135 y         18.167700     18.165258    -0.002441    Cartesian   -0.01
   1135 z          9.118547      9.120941     0.002393    Cartesian    0.03
   1136 x         13.357087     13.356442    -0.000645    Cartesian   -0.00
   1136 y         10.888118     10.889888     0.001770    Cartesian    0.02
   1136 z         16.619040     16.617852    -0.001188    Cartesian   -0.01
   1137 x         16.738897     16.736153    -0.002743    Cartesian   -0.02
   1137 y         -7.732073     -7.728018     0.004055    Cartesian   -0.05
   1137 z          1.779768      1.781187     0.001419    Cartesian    0.08
   1138 x         -1.628345     -1.632050    -0.003705    Cartesian    0.23
   1138 y         10.852771     10.860201     0.007430    Cartesian    0.07
   1138 z         16.587540     16.587947     0.000407    Cartesian    0.00
   1139 x         20.753265     20.751498    -0.001767    Cartesian   -0.01
   1139 y          7.834322      7.831848    -0.002474    Cartesian   -0.03
   1139 z         -1.691723     -1.689300     0.002424    Cartesian   -0.14
   1140 x         13.145759     13.149495     0.003736    Cartesian    0.03
   1140 y        -10.285923    -10.288837    -0.002913    Cartesian    0.03
   1140 z          2.462142      2.455719    -0.006423    Cartesian   -0.26
   1141 x         -2.068628     -2.066457     0.002171    Cartesian   -0.10
   1141 y          4.824149      4.823780    -0.000369    Cartesian   -0.01
   1141 z         17.978681     17.975165    -0.003516    Cartesian   -0.02
   1142 x          9.242619      9.241727    -0.000893    Cartesian   -0.01
   1142 y        -11.361573    -11.357460     0.004113    Cartesian   -0.04
   1142 z          7.166924      7.166366    -0.000558    Cartesian   -0.01
   1143 x         -7.468650     -7.470357    -0.001707    Cartesian    0.02
   1143 y         -5.016702     -5.016463     0.000238    Cartesian   -0.00
   1143 z          2.947067      2.947746     0.000679    Cartesian    0.02
   1144 x         17.927234     17.926819    -0.000415    Cartesian   -0.00
   1144 y         13.686665     13.684304    -0.002361    Cartesian   -0.02
   1144 z         -1.690237     -1.686903     0.003334    Cartesian   -0.20
   1145 x         18.912612     18.905024    -0.007587    Cartesian   -0.04
   1145 y         -3.888039     -3.887236     0.000803    Cartesian   -0.02
   1145 z         -1.710445     -1.706838     0.003607    Cartesian   -0.21
   1146 x         21.845864     21.841919    -0.003945    Cartesian   -0.02
   1146 y          4.166566      4.168475     0.001908    Cartesian    0.05
   1146 z          0.405863      0.405802    -0.000061    Cartesian   -0.02
   1147 x         -9.657827     -9.657729     0.000098    Cartesian   -0.00
   1147 y          1.735044      1.731208    -0.003836    Cartesian   -0.22
   1147 z         -0.363563     -0.363950    -0.000386    Cartesian    0.11
   1148 x         15.005937     15.004053    -0.001884    Cartesian   -0.01
   1148 y         -8.575508     -8.571401     0.004106    Cartesian   -0.05
   1148 z          8.397222      8.395584    -0.001638    Cartesian   -0.02
   1149 x          3.920057      3.922635     0.002578    Cartesian    0.07
   1149 y        -11.147040    -11.140221     0.006818    Cartesian   -0.06
   1149 z          9.063867      9.059817    -0.004051    Cartesian   -0.04
   1150 x         -0.984398     -0.980989     0.003408    Cartesian   -0.35
   1150 y         18.975795     18.980254     0.004459    Cartesian    0.02
   1150 z          2.469572      2.475780     0.006207    Cartesian    0.25
   1151 x         12.519617     12.527399     0.007782    Cartesian    0.06
   1151 y         -0.349815     -0.351827    -0.002012    Cartesian    0.58
   1151 z        -10.434421    -10.432408     0.002013    Cartesian   -0.02
   1152 x          7.608486      7.606155    -0.002331    Cartesian   -0.03
   1152 y         19.521336     19.514114    -0.007222    Cartesian   -0.04
   1152 z         -1.704501     -1.701767     0.002734    Cartesian   -0.16
   1153 x          1.505512      1.508727     0.003215    Cartesian    0.21
   1153 y         14.361959     14.359564    -0.002395    Cartesian   -0.02
   1153 z         15.898349     15.895097    -0.003252    Cartesian   -0.02
   1154 x         -7.384068     -7.380197     0.003871    Cartesian   -0.05
   1154 y         12.262335     12.259133    -0.003202    Cartesian   -0.03
   1154 z          9.069812      9.066419    -0.003393    Cartesian   -0.04
   1155 x         -6.398690     -6.394244     0.004446    Cartesian   -0.07
   1155 y         -5.312370     -5.306086     0.006283    Cartesian   -0.12
   1155 z          9.049604      9.044095    -0.005509    Cartesian   -0.06
   1156 x         16.183118     16.180522    -0.002596    Cartesian   -0.02
   1156 y          5.035774      5.038480     0.002706    Cartesian    0.05
   1156 z         16.617554     16.617047    -0.000507    Cartesian   -0.00
   1157 x         -9.224721     -9.219959     0.004762    Cartesian   -0.05
   1157 y          0.539974      0.543781     0.003807    Cartesian    0.70
   1157 z          9.051090      9.045958    -0.005132    Cartesian   -0.06
   1158 x         21.842303     21.839423    -0.002880    Cartesian   -0.01
   1158 y          0.554740      0.558044     0.003305    Cartesian    0.60
   1158 z          5.808769      5.809044     0.000275    Cartesian    0.00
   1159 x          1.749903      1.752002     0.002098    Cartesian    0.12
   1159 y        -11.379246    -11.372313     0.006934    Cartesian   -0.06
   1159 z          7.151174      7.148254    -0.002920    Cartesian   -0.04
   1160 x         -0.739505     -0.737461     0.002044    Cartesian   -0.28
   1160 y         -9.793404     -9.786717     0.006686    Cartesian   -0.07
   1160 z         -1.759181     -1.761236    -0.002056    Cartesian    0.12
   1161 x         14.979290     14.974216    -0.005074    Cartesian   -0.03
   1161 y         -5.787216     -5.785205     0.002011    Cartesian   -0.03
   1161 z         13.286676     13.279752    -0.006924    Cartesian   -0.05
   1162 x          8.364935      8.364676    -0.000260    Cartesian   -0.00
   1162 y         17.092058     17.086618    -0.005440    Cartesian   -0.03
   1162 z         13.823309     13.816564    -0.006745    Cartesian   -0.05
   1163 x         -8.561722     -8.563982    -0.002261    Cartesian    0.03
   1163 y          1.679077      1.677665    -0.001412    Cartesian   -0.08
   1163 z         -3.668902     -3.670221    -0.001319    Cartesian    0.04
   1164 x         -9.217599     -9.213347     0.004252    Cartesian   -0.05
   1164 y          7.763627      7.764105     0.000478    Cartesian    0.01
   1164 z         -1.754722     -1.755347    -0.000625    Cartesian    0.04
   1165 x         -0.735944     -0.735034     0.000910    Cartesian   -0.12
   1165 y         -6.181577     -6.176885     0.004692    Cartesian   -0.08
   1165 z         -7.162087     -7.162134    -0.000048    Cartesian    0.00
   1166 x         -1.839673     -1.839428     0.000245    Cartesian   -0.01
   1166 y        -10.321270    -10.315604     0.005666    Cartesian   -0.05
   1166 z          2.430642      2.433806     0.003163    Cartesian    0.13
   1167 x          3.934302      3.930856    -0.003446    Cartesian   -0.09
   1167 y          3.300267      3.299242    -0.001025    Cartesian   -0.03
   1167 z        -12.547757    -12.542421     0.005336    Cartesian   -0.04
   1168 x         -6.388007     -6.384873     0.003134    Cartesian   -0.05
   1168 y          5.523110      5.523440     0.000330    Cartesian    0.01
   1168 z         -7.159115     -7.158149     0.000965    Cartesian   -0.01
   1169 x        -10.317767    -10.314119     0.003648    Cartesian   -0.04
   1169 y          7.235761      7.235351    -0.000410    Cartesian   -0.01
   1169 z          2.435101      2.436472     0.001371    Cartesian    0.06
   1170 x          3.675165      3.674981    -0.000184    Cartesian   -0.01
   1170 y         17.622159     17.615187    -0.006972    Cartesian   -0.04
   1170 z         13.292621     13.285087    -0.007533    Cartesian   -0.06
   1171 x        -10.294681    -10.296718    -0.002037    Cartesian    0.02
   1171 y          0.835642      0.833937    -0.001705    Cartesian   -0.20
   1171 z          2.948553      2.948717     0.000164    Cartesian    0.01
   1172 x         17.490567     17.487340    -0.003226    Cartesian   -0.02
   1172 y         11.269908     11.270363     0.000454    Cartesian    0.00
   1172 z         -5.701984     -5.699395     0.002590    Cartesian   -0.05
   1173 x         -3.468998     -3.467615     0.001383    Cartesian   -0.04
   1173 y         -0.869590     -0.868426     0.001164    Cartesian   -0.13
   1173 z         16.568818     16.563518    -0.005301    Cartesian   -0.03
   1174 x         11.187406     11.186424    -0.000981    Cartesian   -0.01
   1174 y          7.627887      7.625071    -0.002817    Cartesian   -0.04
   1174 z         19.224729     19.217187    -0.007542    Cartesian   -0.04
   1175 x         -6.828235     -6.828087     0.000147    Cartesian   -0.00
   1175 y         -0.505473     -0.508866    -0.003392    Cartesian    0.67
   1175 z         -5.767956     -5.768403    -0.000448    Cartesian    0.01
   1176 x         -8.454027     -8.456200    -0.002173    Cartesian    0.03
   1176 y         12.558003     12.560309     0.002306    Cartesian    0.02
   1176 z          2.967275      2.968778     0.001503    Cartesian    0.05
   1177 x          3.494074      3.498284     0.004210    Cartesian    0.12
   1177 y         -2.728317     -2.728725    -0.000408    Cartesian    0.01
   1177 z        -11.156598    -11.150073     0.006525    Cartesian   -0.06
   1178 x         -4.669265     -4.668969     0.000297    Cartesian   -0.01
   1178 y         -8.080753     -8.076680     0.004073    Cartesian   -0.05
   1178 z          7.835035      7.835462     0.000427    Cartesian    0.01
   1179 x         19.656658     19.657636     0.000978    Cartesian    0.00
   1179 y         10.918282     10.917372    -0.000909    Cartesian   -0.01
   1179 z         -2.904806     -2.904197     0.000610    Cartesian   -0.02
   1180 x          7.849371      7.843464    -0.005907    Cartesian   -0.08
   1180 y         -9.831659     -9.825500     0.006159    Cartesian   -0.06
   1180 z         -5.048751     -5.046147     0.002604    Cartesian   -0.05
   1181 x        -10.321328    -10.318263     0.003065    Cartesian   -0.03
   1181 y          3.623934      3.624414     0.000480    Cartesian    0.01
   1181 z          7.838007      7.837124    -0.000882    Cartesian   -0.01
   1182 x          4.586618      4.588516     0.001898    Cartesian    0.04
   1182 y         -6.396110     -6.388230     0.007880    Cartesian   -0.12
   1182 z         -9.059030     -9.056981     0.002050    Cartesian   -0.02
   1183 x         21.405581     21.401968    -0.003613    Cartesian   -0.02
   1183 y         -1.862055     -1.861771     0.000285    Cartesian   -0.02
   1183 z          1.797003      1.799937     0.002934    Cartesian    0.16
   1184 x         -9.661388     -9.660166     0.001222    Cartesian   -0.01
   1184 y         -1.876783     -1.880103    -0.003320    Cartesian    0.18
   1184 z          5.039343      5.038919    -0.000424    Cartesian   -0.01
   1185 x         11.834943     11.833484    -0.001459    Cartesian   -0.01
   1185 y         19.362769     19.359853    -0.002916    Cartesian   -0.02
   1185 z         -0.296106     -0.295083     0.001023    Cartesian   -0.35
   1186 x         -4.639057     -4.639956    -0.000899    Cartesian    0.02
   1186 y         -7.257219     -7.255048     0.002171    Cartesian   -0.03
   1186 z         -2.457326     -2.455166     0.002160    Cartesian   -0.09
   1187 x          4.656982      4.657117     0.000135    Cartesian    0.00
   1187 y         -3.564372     -3.563280     0.001092    Cartesian   -0.03
   1187 z         18.675319     18.672106    -0.003213    Cartesian   -0.02
   1188 x          6.849749      6.848807    -0.000942    Cartesian   -0.01
   1188 y         -6.704261     -6.701809     0.002452    Cartesian   -0.04
   1188 z         16.583082     16.580605    -0.002477    Cartesian   -0.01
   1189 x          5.438332      5.435561    -0.002771    Cartesian   -0.05
   1189 y         19.289129     19.283246    -0.005883    Cartesian   -0.03
   1189 z         -3.617194     -3.613744     0.003451    Cartesian   -0.10
   1190 x         -0.995081     -0.995637    -0.000556    Cartesian    0.06
   1190 y          8.140315      8.135137    -0.005179    Cartesian   -0.06
   1190 z         18.678291     18.664863    -0.013428    Cartesian   -0.07
   1191 x         -5.739251     -5.738844     0.000408    Cartesian   -0.01
   1191 y         -7.785093     -7.781868     0.003226    Cartesian   -0.04
   1191 z          1.732518      1.730832    -0.001686    Cartesian   -0.10
   1192 x         12.508934     12.498296    -0.010638    Cartesian   -0.09
   1192 y        -11.185295    -11.176179     0.009116    Cartesian   -0.08
   1192 z          5.774297      5.770364    -0.003933    Cartesian   -0.07
   1193 x         20.416642     20.412387    -0.004255    Cartesian   -0.02
   1193 y         12.100823     12.096502    -0.004320    Cartesian   -0.04
   1193 z          7.220118      7.222180     0.002063    Cartesian    0.03
   1194 x         21.513275     21.510609    -0.002666    Cartesian   -0.01
   1194 y          9.016871      9.013945    -0.002926    Cartesian   -0.03
   1194 z          8.433180      8.429213    -0.003967    Cartesian   -0.05
   1195 x         19.320537     19.315276    -0.005260    Cartesian   -0.03
   1195 y         12.156789     12.157675     0.000886    Cartesian    0.01
   1195 z         10.525456     10.523970    -0.001487    Cartesian   -0.01
   1196 x         -8.121438     -8.111233     0.010205    Cartesian   -0.13
   1196 y          7.707699      7.701783    -0.005916    Cartesian   -0.08
   1196 z         -5.060042     -5.056596     0.003446    Cartesian   -0.07
   1197 x         18.572428     18.570024    -0.002403    Cartesian   -0.01
   1197 y         -3.233365     -3.231304     0.002061    Cartesian   -0.06
   1197 z         12.604302     12.602610    -0.001692    Cartesian   -0.01
--------------------------------------------------------------------------------


  Time to end of optimisation  =      402.1345 seconds


  Peak dynamic memory used =     210.67 MB 


  Timing analysis for GULP :

--------------------------------------------------------------------------------
  Task / Subroutine                                          Time (Seconds)
--------------------------------------------------------------------------------
  Calculation of reciprocal space energy and derivatives          0.0171
  Calculation of real space energy and derivatives                0.5507
  Calculation for region 1 energy and derivatives (2-b)         164.1238
  Calculation for region 2a energy                              140.7388
  Calculation for region 2b energy                                0.0222
  Calculation and manipulation of Hessian matrix                  0.0566
  Calculation of matrix inversion                                95.0771
  Symmetry generation of equivalent positions                     0.0002
--------------------------------------------------------------------------------
  Total CPU time                                                402.1345
--------------------------------------------------------------------------------


  Dump file written as ScCl3.grs



  **** GULP has completed with   2 warnings - beware! ****

  Job Finished at 18:50.31  7th February   2022                               

