 running on  120 total cores
 distrk:  each k-point on  120 cores,    1 groups
 distr:  one band on   20 cores,    6 groups
 vasp.6.3.2 27Jun22 (build Sep 05 2022 15:05:53) gamma-only                     
  
 POSCAR found type information on POSCAR LiScCl
 POSCAR found :  3 types and     432 ions
 Reading from existing POTCAR
 scaLAPACK will be used
 Reading from existing POTCAR
 -----------------------------------------------------------------------------
|                                                                             |
|               ----> ADVICE to this user running VASP <----                  |
|                                                                             |
|     You enforced a specific xc type in the INCAR file but a different       |
|     type was found in the POTCAR file.                                      |
|     I HOPE YOU KNOW WHAT YOU ARE DOING!                                     |
|                                                                             |
 -----------------------------------------------------------------------------

 LDA part: xc-table for Pade appr. of Perdew
 POSCAR, INCAR and KPOINTS ok, starting setup
 FFT: planning ... GRIDC
 FFT: planning ... GRID_SOFT
 FFT: planning ... GRID
 WAVECAR not read
 prediction of wavefunctions initialized - no I/O
 entering main loop
       N       E                     dE             d eps       ncg     rms          rms(c)
DAV:   1     0.418924025300E+05    0.41892E+05   -0.12120E+06  3192   0.167E+03
DAV:   2     0.688429167066E+04   -0.35008E+05   -0.33958E+05  3828   0.484E+02
DAV:   3    -0.465161721612E+03   -0.73495E+04   -0.66889E+04  4284   0.214E+02
DAV:   4    -0.183984378752E+04   -0.13747E+04   -0.13626E+04  5160   0.102E+02
DAV:   5    -0.195987205183E+04   -0.12003E+03   -0.11968E+03  5652   0.440E+01    0.737E+01
DAV:   6    -0.187247718317E+04    0.87395E+02   -0.49627E+02  5748   0.279E+01    0.384E+01
DAV:   7    -0.187497642408E+04   -0.24992E+01   -0.11939E+02  6072   0.106E+01    0.179E+01
DAV:   8    -0.187593940653E+04   -0.96298E+00   -0.21072E+01  5556   0.565E+00    0.850E+00
DAV:   9    -0.187596344774E+04   -0.24041E-01   -0.28143E+00  5748   0.237E+00    0.371E+00
DAV:  10    -0.187595280373E+04    0.10644E-01   -0.91983E-01  5388   0.181E+00    0.273E+00
DAV:  11    -0.187590478901E+04    0.48015E-01   -0.31322E-01  5088   0.103E+00    0.679E-01
DAV:  12    -0.187591155188E+04   -0.67629E-02   -0.11513E-01  6216   0.402E-01    0.560E-01
DAV:  13    -0.187591273899E+04   -0.11871E-02   -0.15109E-02  5604   0.179E-01    0.247E-01
DAV:  14    -0.187591361101E+04   -0.87202E-03   -0.56995E-03  6000   0.713E-02    0.157E-01
DAV:  15    -0.187591376518E+04   -0.15417E-03   -0.12258E-03  4548   0.427E-02    0.620E-02
DAV:  16    -0.187591384460E+04   -0.79422E-04   -0.85081E-04  5712   0.248E-02    0.447E-02
DAV:  17    -0.187591386583E+04   -0.21223E-04   -0.20721E-04  4884   0.131E-02    0.342E-02
DAV:  18    -0.187591386249E+04    0.33351E-05   -0.13737E-05  2280   0.674E-03
 maxForce  0.000000000000000E+000  1.000000000000000E-004
      1 T=     1. E= -.18758467E+04 F= -.18759139E+04 E0= -.18759139E+04  EK= 0.67171E-01 SP= 0.00E+00 SK= 0.00E+00
 bond charge predicted
       N       E                     dE             d eps       ncg     rms          rms(c)
DAV:   1    -0.187591361999E+04    0.24584E-03   -0.99234E-01  3408   0.104E+00    0.258E-01
DAV:   2    -0.187591765142E+04   -0.40314E-02   -0.44254E-02  5088   0.243E-01    0.115E-01
DAV:   3    -0.187591766793E+04   -0.16506E-04   -0.22327E-03  5580   0.475E-02    0.853E-02
DAV:   4    -0.187591768031E+04   -0.12388E-04   -0.21843E-04  5568   0.168E-02    0.425E-02
DAV:   5    -0.187591766541E+04    0.14909E-04   -0.84150E-05  3036   0.846E-03    0.251E-02
DAV:   6    -0.187591766696E+04   -0.15499E-05   -0.38613E-05  2532   0.616E-03
 maxForce  0.000000000000000E+000  1.000000000000000E-004
 dEPOT  4.804463776736156E-003  1.000000000000000E-004
      2 T=     1. E= -.18758475E+04 F= -.18759177E+04 E0= -.18759177E+04  EK= 0.70148E-01 SP= 0.00E+00 SK= 0.00E+00
 bond charge predicted
 prediction of wavefunctions
       N       E                     dE             d eps       ncg     rms          rms(c)
DAV:   1    -0.187591513509E+04    0.25303E-02   -0.82853E-02  3828   0.451E+00    0.295E-01
DAV:   2    -0.187592510002E+04   -0.99649E-02   -0.10453E-01  3432   0.291E-01    0.135E-01
DAV:   3    -0.187592558213E+04   -0.48211E-03   -0.54651E-03  5700   0.926E-02    0.804E-02
DAV:   4    -0.187592555036E+04    0.31769E-04   -0.38220E-04  5628   0.200E-02    0.630E-02
DAV:   5    -0.187592552213E+04    0.28231E-04   -0.63083E-05  3180   0.818E-03    0.383E-02
DAV:   6    -0.187592551571E+04    0.64166E-05   -0.58239E-05  2832   0.643E-03
 maxForce  0.000000000000000E+000  1.000000000000000E-004
 dEPOT  1.265322231824939E-002  1.000000000000000E-004
      3 T=     1. E= -.18758446E+04 F= -.18759255E+04 E0= -.18759255E+04  EK= 0.80893E-01 SP= 0.00E+00 SK= 0.00E+00
 bond charge predicted
 prediction of wavefunctions
       N       E                     dE             d eps       ncg     rms          rms(c)
DAV:   1    -0.187592275669E+04    0.27654E-02   -0.30932E-02  3960   0.138E+01    0.444E-01
DAV:   2    -0.187593726729E+04   -0.14511E-01   -0.15539E-01  3384   0.340E-01    0.205E-01
DAV:   3    -0.187593774462E+04   -0.47734E-03   -0.62945E-03  4968   0.109E-01    0.109E-01
DAV:   4    -0.187593767250E+04    0.72122E-04   -0.39940E-04  5772   0.215E-02    0.974E-02
DAV:   5    -0.187593758889E+04    0.83612E-04   -0.14960E-04  3648   0.113E-02    0.487E-02
DAV:   6    -0.187593757696E+04    0.11930E-04   -0.16169E-04  3708   0.977E-03    0.241E-02
DAV:   7    -0.187593757759E+04   -0.63551E-06   -0.12249E-05  1800   0.443E-03
 maxForce  0.000000000000000E+000  1.000000000000000E-004
 dEPOT  2.471510188092907E-002  1.000000000000000E-004
      4 T=     2. E= -.18758396E+04 F= -.18759376E+04 E0= -.18759376E+04  EK= 0.97955E-01 SP= 0.00E+00 SK= 0.00E+00
 bond charge predicted
 prediction of wavefunctions
       N       E                     dE             d eps       ncg     rms          rms(c)
DAV:   1    -0.187592965395E+04    0.79230E-02   -0.35778E-02  4416   0.206E+01    0.525E-01
DAV:   2    -0.187595170904E+04   -0.22055E-01   -0.23411E-01  3336   0.432E-01    0.246E-01
DAV:   3    -0.187595274792E+04   -0.10389E-02   -0.12428E-02  4956   0.141E-01    0.133E-01
DAV:   4    -0.187595265147E+04    0.96449E-04   -0.65979E-04  6276   0.268E-02    0.117E-01
DAV:   5    -0.187595253802E+04    0.11345E-03   -0.23944E-04  4380   0.142E-02    0.574E-02
DAV:   6    -0.187595252504E+04    0.12981E-04   -0.15102E-04  3528   0.950E-03    0.354E-02
DAV:   7    -0.187595252547E+04   -0.43068E-06   -0.10718E-05  1800   0.466E-03
 maxForce  0.000000000000000E+000  1.000000000000000E-004
 dEPOT  3.966297940837649E-002  1.000000000000000E-004
      5 T=     2. E= -.18758337E+04 F= -.18759525E+04 E0= -.18759525E+04  EK= 0.11880E+00 SP= 0.00E+00 SK= 0.00E+00
 bond charge predicted
 prediction of wavefunctions
       N       E                     dE             d eps       ncg     rms          rms(c)
DAV:   1    -0.187595605852E+04   -0.35335E-02   -0.11168E-01  3768   0.500E+00    0.445E-01
DAV:   2    -0.187596895942E+04   -0.12901E-01   -0.13995E-01  3360   0.335E-01    0.225E-01
DAV:   3    -0.187596964631E+04   -0.68690E-03   -0.86260E-03  5676   0.119E-01    0.122E-01
DAV:   4    -0.187596955219E+04    0.94122E-04   -0.63388E-04  5856   0.252E-02    0.104E-01
DAV:   5    -0.187596944967E+04    0.10252E-03   -0.22088E-04  4368   0.131E-02    0.495E-02
DAV:   6    -0.187596943845E+04    0.11215E-04   -0.14022E-04  3552   0.920E-03    0.283E-02
DAV:   7    -0.187596943943E+04   -0.98060E-06   -0.12361E-05  1800   0.453E-03
 maxForce  0.000000000000000E+000  1.000000000000000E-004
 dEPOT  5.657694123124202E-002  1.000000000000000E-004
      6 T=     3. E= -.18758265E+04 F= -.18759694E+04 E0= -.18759694E+04  EK= 0.14296E+00 SP= 0.00E+00 SK= 0.00E+00
 bond charge predicted
 prediction of wavefunctions
       N       E                     dE             d eps       ncg     rms          rms(c)
DAV:   1    -0.187597672499E+04   -0.72865E-02   -0.18373E-01  3864   0.112E+01    0.373E-01
DAV:   2    -0.187598714444E+04   -0.10419E-01   -0.11256E-01  3336   0.318E-01    0.188E-01
DAV:   3    -0.187598792222E+04   -0.77778E-03   -0.91883E-03  5664   0.112E-01    0.110E-01
DAV:   4    -0.187598787032E+04    0.51902E-04   -0.81394E-04  5988   0.286E-02    0.914E-02
DAV:   5    -0.187598778233E+04    0.87987E-04   -0.18864E-04  4392   0.127E-02    0.422E-02
DAV:   6    -0.187598777219E+04    0.10143E-04   -0.11715E-04  3144   0.861E-03    0.238E-02
DAV:   7    -0.187598777339E+04   -0.11984E-05   -0.12502E-05  1800   0.469E-03
 maxForce  0.000000000000000E+000  1.000000000000000E-004
 dEPOT  7.491089617155922E-002  1.000000000000000E-004
      7 T=     3. E= -.18758162E+04 F= -.18759878E+04 E0= -.18759878E+04  EK= 0.17154E+00 SP= 0.00E+00 SK= 0.00E+00
 bond charge predicted
 prediction of wavefunctions
       N       E                     dE             d eps       ncg     rms          rms(c)
DAV:   1    -0.187599815043E+04   -0.10378E-01   -0.23906E-01  3588   0.148E+00    0.324E-01
DAV:   2    -0.187600627635E+04   -0.81259E-02   -0.88129E-02  3456   0.295E-01    0.160E-01
DAV:   3    -0.187600702618E+04   -0.74983E-03   -0.86292E-03  5928   0.102E-01    0.101E-01
DAV:   4    -0.187600699500E+04    0.31181E-04   -0.80908E-04  5904   0.296E-02    0.811E-02
DAV:   5    -0.187600691954E+04    0.75454E-04   -0.17015E-04  4008   0.123E-02    0.355E-02
DAV:   6    -0.187600691548E+04    0.40611E-05   -0.10516E-04  3024   0.825E-03    0.214E-02
DAV:   7    -0.187600691670E+04   -0.12222E-05   -0.11597E-05  1800   0.477E-03
 maxForce  0.000000000000000E+000  1.000000000000000E-004
 dEPOT  9.405421033056882E-002  1.000000000000000E-004
      8 T=     4. E= -.18758017E+04 F= -.18760069E+04 E0= -.18760069E+04  EK= 0.20519E+00 SP= 0.00E+00 SK= 0.00E+00
 bond charge predicted
 prediction of wavefunctions
       N       E                     dE             d eps       ncg     rms          rms(c)
DAV:   1    -0.187601866907E+04   -0.11754E-01   -0.27094E-01  3384   0.978E-01    0.295E-01
DAV:   2    -0.187602515793E+04   -0.64889E-02   -0.70756E-02  3420   0.253E-01    0.146E-01
DAV:   3    -0.187602591141E+04   -0.75349E-03   -0.85511E-03  5892   0.979E-02    0.102E-01
DAV:   4    -0.187602589779E+04    0.13627E-04   -0.81607E-04  5976   0.305E-02    0.794E-02
DAV:   5    -0.187602583460E+04    0.63185E-04   -0.13411E-04  3828   0.114E-02    0.403E-02
DAV:   6    -0.187602582810E+04    0.65064E-05   -0.93929E-05  3348   0.826E-03
 maxForce  0.000000000000000E+000  1.000000000000000E-004
 dEPOT  0.112965604301053       1.000000000000000E-004
      9 T=     4. E= -.18757858E+04 F= -.18760258E+04 E0= -.18760258E+04  EK= 0.23998E+00 SP= 0.00E+00 SK= 0.00E+00
 bond charge predicted
 prediction of wavefunctions
       N       E                     dE             d eps       ncg     rms          rms(c)
DAV:   1    -0.187601300746E+04    0.12827E-01   -0.20526E-01  3948   0.981E+00    0.480E-01
DAV:   2    -0.187604241239E+04   -0.29405E-01   -0.30865E-01  3312   0.491E-01    0.247E-01
DAV:   3    -0.187604433705E+04   -0.19247E-02   -0.21471E-02  5832   0.172E-01    0.138E-01
DAV:   4    -0.187604429570E+04    0.41353E-04   -0.16079E-03  6180   0.384E-02    0.119E-01
DAV:   5    -0.187604417043E+04    0.12527E-03   -0.27070E-04  4668   0.165E-02    0.627E-02
DAV:   6    -0.187604414619E+04    0.24243E-04   -0.17639E-04  3648   0.105E-02    0.339E-02
DAV:   7    -0.187604414762E+04   -0.14310E-05   -0.19566E-05  1812   0.572E-03
 maxForce  0.000000000000000E+000  1.000000000000000E-004
 dEPOT  0.131285124992928       1.000000000000000E-004
     10 T=     5. E= -.18757715E+04 F= -.18760441E+04 E0= -.18760441E+04  EK= 0.27261E+00 SP= 0.00E+00 SK= 0.00E+00
 bond charge predicted
 prediction of wavefunctions
       N       E                     dE             d eps       ncg     rms          rms(c)
DAV:   1    -0.187529908091E+04    0.74507E+00   -0.34883E-01  3948   0.922E+00    0.267E+00
DAV:   2    -0.187602891593E+04   -0.72984E+00   -0.73164E+00  4476   0.113E+00    0.106E+00
DAV:   3    -0.187605943768E+04   -0.30522E-01   -0.31115E-01  6204   0.308E-01    0.757E-01
DAV:   4    -0.187606105736E+04   -0.16197E-02   -0.17159E-02  5340   0.110E-01    0.643E-01
DAV:   5    -0.187606113910E+04   -0.81736E-04   -0.16007E-03  6144   0.286E-02    0.446E-01
DAV:   6    -0.187606113422E+04    0.48808E-05   -0.11780E-04  3588   0.980E-03    0.315E-01
DAV:   7    -0.187606113166E+04    0.25537E-05   -0.40489E-05  2916   0.586E-03
 maxForce  0.000000000000000E+000  1.000000000000000E-004
 dEPOT  0.148269172331993       1.000000000000000E-004
     11 T=     5. E= -.18757590E+04 F= -.18760611E+04 E0= -.18760611E+04  EK= 0.30212E+00 SP= 0.00E+00 SK= 0.00E+00
 bond charge predicted
 prediction of wavefunctions
       N       E                     dE             d eps       ncg     rms          rms(c)
DAV:   1    -0.187606483557E+04   -0.37013E-02   -0.35598E-01  3336   0.182E+00    0.358E-01
DAV:   2    -0.187607486954E+04   -0.10034E-01   -0.10878E-01  3360   0.309E-01    0.181E-01
DAV:   3    -0.187607593739E+04   -0.10678E-02   -0.12185E-02  5868   0.120E-01    0.117E-01
DAV:   4    -0.187607590942E+04    0.27965E-04   -0.11135E-03  5904   0.356E-02    0.939E-02
DAV:   5    -0.187607581778E+04    0.91649E-04   -0.20258E-04  4308   0.138E-02    0.454E-02
DAV:   6    -0.187607581049E+04    0.72823E-05   -0.14081E-04  3864   0.913E-03    0.250E-02
DAV:   7    -0.187607581177E+04   -0.12731E-05   -0.91385E-06  1800   0.408E-03
 maxForce  0.000000000000000E+000  1.000000000000000E-004
 dEPOT  0.162949273839104       1.000000000000000E-004
     12 T=     6. E= -.18757418E+04 F= -.18760758E+04 E0= -.18760758E+04  EK= 0.33399E+00 SP= 0.00E+00 SK= 0.00E+00
 bond charge predicted
 prediction of wavefunctions
       N       E                     dE             d eps       ncg     rms          rms(c)
DAV:   1    -0.187607836449E+04   -0.25540E-02   -0.43818E-01  3408   0.975E-01    0.348E-01
DAV:   2    -0.187608675849E+04   -0.83940E-02   -0.91781E-02  3456   0.293E-01    0.170E-01
DAV:   3    -0.187608793431E+04   -0.11758E-02   -0.13155E-02  6060   0.120E-01    0.124E-01
DAV:   4    -0.187608793341E+04    0.89797E-06   -0.12051E-03  5856   0.371E-02    0.952E-02
DAV:   5    -0.187608785236E+04    0.81054E-04   -0.18335E-04  4416   0.130E-02    0.522E-02
DAV:   6    -0.187608784207E+04    0.10282E-04   -0.12682E-04  3780   0.952E-03    0.238E-02
DAV:   7    -0.187608784400E+04   -0.19265E-05   -0.10683E-05  1812   0.480E-03
 maxForce  0.000000000000000E+000  1.000000000000000E-004
 dEPOT  0.174981507716211       1.000000000000000E-004
     13 T=     6. E= -.18757263E+04 F= -.18760878E+04 E0= -.18760878E+04  EK= 0.36154E+00 SP= 0.00E+00 SK= 0.00E+00
 bond charge predicted
 prediction of wavefunctions
       N       E                     dE             d eps       ncg     rms          rms(c)
DAV:   1    -0.187608671705E+04    0.11250E-02   -0.50235E-01  3348   0.100E+00    0.361E-01
DAV:   2    -0.187609588867E+04   -0.91716E-02   -0.99904E-02  3504   0.309E-01    0.175E-01
DAV:   3    -0.187609713759E+04   -0.12489E-02   -0.14057E-02  6012   0.124E-01    0.128E-01
DAV:   4    -0.187609713754E+04    0.52300E-07   -0.12754E-03  5904   0.384E-02    0.971E-02
DAV:   5    -0.187609705499E+04    0.82548E-04   -0.18711E-04  4404   0.133E-02    0.546E-02
DAV:   6    -0.187609704307E+04    0.11926E-04   -0.13279E-04  4008   0.985E-03    0.253E-02
DAV:   7    -0.187609704474E+04   -0.16727E-05   -0.10786E-05  1824   0.468E-03
 maxForce  0.000000000000000E+000  1.000000000000000E-004
 dEPOT  0.184182246662886       1.000000000000000E-004
     14 T=     7. E= -.18757035E+04 F= -.18760970E+04 E0= -.18760970E+04  EK= 0.39353E+00 SP= 0.00E+00 SK= 0.00E+00
 bond charge predicted
 prediction of wavefunctions
       N       E                     dE             d eps       ncg     rms          rms(c)
DAV:   1    -0.187609031119E+04    0.67319E-02   -0.46232E-01  3456   0.127E+00    0.414E-01
DAV:   2    -0.187610258249E+04   -0.12271E-01   -0.13401E-01  3420   0.345E-01    0.210E-01
DAV:   3    -0.187610401973E+04   -0.14372E-02   -0.16378E-02  5976   0.139E-01    0.137E-01
DAV:   4    -0.187610400246E+04    0.17267E-04   -0.15610E-03  6096   0.410E-02    0.112E-01
DAV:   5    -0.187610387691E+04    0.12555E-03   -0.23795E-04  4656   0.148E-02    0.595E-02
DAV:   6    -0.187610385587E+04    0.21044E-04   -0.18047E-04  3912   0.108E-02    0.289E-02
DAV:   7    -0.187610385805E+04   -0.21797E-05   -0.14214E-05  1896   0.527E-03
 maxForce  0.000000000000000E+000  1.000000000000000E-004
 dEPOT  0.190995555498148       1.000000000000000E-004
     15 T=     8. E= -.18756763E+04 F= -.18761039E+04 E0= -.18761039E+04  EK= 0.42753E+00 SP= 0.00E+00 SK= 0.00E+00
 bond charge predicted
 prediction of wavefunctions
       N       E                     dE             d eps       ncg     rms          rms(c)
DAV:   1    -0.187609647992E+04    0.73759E-02   -0.59589E-01  3312   0.107E+00    0.383E-01
DAV:   2    -0.187610672803E+04   -0.10248E-01   -0.11180E-01  3492   0.323E-01    0.184E-01
DAV:   3    -0.187610817429E+04   -0.14463E-02   -0.16206E-02  6012   0.132E-01    0.138E-01
DAV:   4    -0.187610817329E+04    0.99864E-06   -0.14836E-03  5832   0.413E-02    0.103E-01
DAV:   5    -0.187610807774E+04    0.95557E-04   -0.22278E-04  4692   0.144E-02    0.573E-02
DAV:   6    -0.187610806611E+04    0.11622E-04   -0.14791E-04  4008   0.103E-02    0.265E-02
DAV:   7    -0.187610806839E+04   -0.22785E-05   -0.12394E-05  1836   0.515E-03
 maxForce  0.000000000000000E+000  1.000000000000000E-004
 dEPOT  0.195205900799692       1.000000000000000E-004
     16 T=     8. E= -.18756529E+04 F= -.18761081E+04 E0= -.18761081E+04  EK= 0.45513E+00 SP= 0.00E+00 SK= 0.00E+00
 bond charge predicted
 prediction of wavefunctions
       N       E                     dE             d eps       ncg     rms          rms(c)
DAV:   1    -0.187609629567E+04    0.11770E-01   -0.61158E-01  3360   0.116E+00    0.406E-01
DAV:   2    -0.187610793799E+04   -0.11642E-01   -0.12685E-01  3420   0.338E-01    0.195E-01
DAV:   3    -0.187610951428E+04   -0.15763E-02   -0.17693E-02  5964   0.139E-01    0.145E-01
DAV:   4    -0.187610951233E+04    0.19505E-05   -0.16709E-03  5976   0.433E-02    0.110E-01
DAV:   5    -0.187610940050E+04    0.11183E-03   -0.24241E-04  4764   0.147E-02    0.623E-02
DAV:   6    -0.187610938257E+04    0.17931E-04   -0.16233E-04  3996   0.106E-02    0.297E-02
DAV:   7    -0.187610938416E+04   -0.15884E-05   -0.12076E-05  1824   0.509E-03
 maxForce  0.000000000000000E+000  1.000000000000000E-004
 dEPOT  0.196521666639228       1.000000000000000E-004
     17 T=     9. E= -.18756277E+04 F= -.18761094E+04 E0= -.18761094E+04  EK= 0.48170E+00 SP= 0.00E+00 SK= 0.00E+00
 bond charge predicted
 prediction of wavefunctions
       N       E                     dE             d eps       ncg     rms          rms(c)
DAV:   1    -0.187609617780E+04    0.13205E-01   -0.62039E-01  3300   0.111E+00    0.411E-01
DAV:   2    -0.187610696470E+04   -0.10787E-01   -0.11796E-01  3480   0.333E-01    0.193E-01
DAV:   3    -0.187610853680E+04   -0.15721E-02   -0.17611E-02  5916   0.137E-01    0.149E-01
DAV:   4    -0.187610853750E+04   -0.70309E-06   -0.16202E-03  5856   0.434E-02    0.112E-01
DAV:   5    -0.187610844958E+04    0.87928E-04   -0.19353E-04  4872   0.139E-02    0.717E-02
DAV:   6    -0.187610841696E+04    0.32619E-04   -0.17030E-04  4176   0.116E-02    0.293E-02
DAV:   7    -0.187610841933E+04   -0.23715E-05   -0.31705E-05  2196   0.612E-03
 maxForce  0.000000000000000E+000  1.000000000000000E-004
 dEPOT  0.195556836388050       1.000000000000000E-004
     18 T=     9. E= -.18756076E+04 F= -.18761084E+04 E0= -.18761084E+04  EK= 0.50080E+00 SP= 0.00E+00 SK= 0.00E+00
 bond charge predicted
 prediction of wavefunctions
       N       E                     dE             d eps       ncg     rms          rms(c)
DAV:   1    -0.187609165642E+04    0.16761E-01   -0.67275E-01  3288   0.116E+00    0.430E-01
DAV:   2    -0.187610323345E+04   -0.11577E-01   -0.12673E-01  3480   0.345E-01    0.205E-01
DAV:   3    -0.187610488865E+04   -0.16552E-02   -0.18570E-02  5904   0.141E-01    0.155E-01
DAV:   4    -0.187610488418E+04    0.44709E-05   -0.17253E-03  6012   0.447E-02    0.117E-01
DAV:   5    -0.187610477338E+04    0.11080E-03   -0.24325E-04  4908   0.151E-02    0.699E-02
DAV:   6    -0.187610475052E+04    0.22859E-04   -0.17494E-04  4080   0.112E-02    0.317E-02
DAV:   7    -0.187610475244E+04   -0.19142E-05   -0.18525E-05  1920   0.581E-03
 maxForce  0.000000000000000E+000  1.000000000000000E-004
 dEPOT  0.191889946330548       1.000000000000000E-004
     19 T=     9. E= -.18755871E+04 F= -.18761048E+04 E0= -.18761048E+04  EK= 0.51764E+00 SP= 0.00E+00 SK= 0.00E+00
 bond charge predicted
 prediction of wavefunctions
       N       E                     dE             d eps       ncg     rms          rms(c)
DAV:   1    -0.187561110546E+04    0.49365E+00   -0.58851E-01  3996   0.819E+00    0.890E-01
DAV:   2    -0.187606365158E+04   -0.45255E+00   -0.45452E+00  3240   0.103E+00    0.351E-01
DAV:   3    -0.187609706464E+04   -0.33413E-01   -0.33720E-01  6168   0.371E-01    0.275E-01
DAV:   4    -0.187609848796E+04   -0.14233E-02   -0.16783E-02  6288   0.122E-01    0.229E-01
DAV:   5    -0.187609849570E+04   -0.77394E-05   -0.14462E-03  6096   0.276E-02    0.154E-01
DAV:   6    -0.187609846831E+04    0.27387E-04   -0.21631E-04  4716   0.138E-02    0.892E-02
DAV:   7    -0.187609846752E+04    0.79142E-06   -0.61805E-05  3120   0.752E-03
 maxForce  0.000000000000000E+000  1.000000000000000E-004
 dEPOT  0.185605025482573       1.000000000000000E-004
     20 T=     9. E= -.18755716E+04 F= -.18760985E+04 E0= -.18760985E+04  EK= 0.52686E+00 SP= 0.00E+00 SK= 0.00E+00
 bond charge predicted
 prediction of wavefunctions
       N       E                     dE             d eps       ncg     rms          rms(c)
DAV:   1    -0.187607539487E+04    0.23073E-01   -0.69128E-01  3288   0.156E+00    0.432E-01
DAV:   2    -0.187609002899E+04   -0.14634E-01   -0.15922E-01  4104   0.399E-01    0.252E-01
DAV:   3    -0.187609070730E+04   -0.67831E-03   -0.11522E-02  5844   0.991E-02    0.133E-01
DAV:   4    -0.187609067096E+04    0.36340E-04   -0.81794E-04  5808   0.341E-02    0.105E-01
DAV:   5    -0.187609056024E+04    0.11072E-03   -0.32712E-04  4092   0.166E-02    0.474E-02
DAV:   6    -0.187609056480E+04   -0.45577E-05   -0.14509E-04  3840   0.950E-03    0.325E-02
DAV:   7    -0.187609056540E+04   -0.59695E-06   -0.73506E-06  1800   0.387E-03
 maxForce  0.000000000000000E+000  1.000000000000000E-004
 dEPOT  0.177702904340322       1.000000000000000E-004
     21 T=    10. E= -.18755453E+04 F= -.18760906E+04 E0= -.18760906E+04  EK= 0.54522E+00 SP= 0.00E+00 SK= 0.00E+00
 bond charge predicted
 prediction of wavefunctions
       N       E                     dE             d eps       ncg     rms          rms(c)
DAV:   1    -0.187606583415E+04    0.24731E-01   -0.88719E-01  3312   0.122E+00    0.476E-01
DAV:   2    -0.187607843039E+04   -0.12596E-01   -0.13705E-01  3456   0.362E-01    0.216E-01
DAV:   3    -0.187608025853E+04   -0.18281E-02   -0.20221E-02  5844   0.147E-01    0.172E-01
DAV:   4    -0.187608026350E+04   -0.49693E-05   -0.19002E-03  5988   0.468E-02    0.126E-01
DAV:   5    -0.187608014298E+04    0.12052E-03   -0.29589E-04  4824   0.163E-02    0.740E-02
DAV:   6    -0.187608013175E+04    0.11228E-04   -0.17228E-04  4032   0.109E-02    0.366E-02
DAV:   7    -0.187608013321E+04   -0.14628E-05   -0.10115E-05  1800   0.523E-03
 maxForce  0.000000000000000E+000  1.000000000000000E-004
 dEPOT  0.167270722926105       1.000000000000000E-004
     22 T=    10. E= -.18755073E+04 F= -.18760801E+04 E0= -.18760801E+04  EK= 0.57285E+00 SP= 0.00E+00 SK= 0.00E+00
 bond charge predicted
 prediction of wavefunctions
       N       E                     dE             d eps       ncg     rms          rms(c)
DAV:   1    -0.187605355644E+04    0.26575E-01   -0.76098E-01  3288   0.121E+00    0.468E-01
DAV:   2    -0.187606572810E+04   -0.12172E-01   -0.13372E-01  3444   0.354E-01    0.212E-01
DAV:   3    -0.187606743158E+04   -0.17035E-02   -0.19231E-02  5928   0.145E-01    0.167E-01
DAV:   4    -0.187606742555E+04    0.60295E-05   -0.17996E-03  6000   0.453E-02    0.122E-01
DAV:   5    -0.187606730967E+04    0.11588E-03   -0.26190E-04  4932   0.153E-02    0.742E-02
DAV:   6    -0.187606729077E+04    0.18898E-04   -0.16351E-04  4068   0.109E-02    0.361E-02
DAV:   7    -0.187606729163E+04   -0.85315E-06   -0.13201E-05  1824   0.542E-03
 maxForce  0.000000000000000E+000  1.000000000000000E-004
 dEPOT  0.154429134108568       1.000000000000000E-004
     23 T=    11. E= -.18754717E+04 F= -.18760673E+04 E0= -.18760673E+04  EK= 0.59562E+00 SP= 0.00E+00 SK= 0.00E+00
 bond charge predicted
 prediction of wavefunctions
       N       E                     dE             d eps       ncg     rms          rms(c)
DAV:   1    -0.187603865059E+04    0.28640E-01   -0.82482E-01  3276   0.122E+00    0.508E-01
DAV:   2    -0.187605122373E+04   -0.12573E-01   -0.13759E-01  3480   0.364E-01    0.228E-01
DAV:   3    -0.187605298125E+04   -0.17575E-02   -0.19724E-02  5844   0.146E-01    0.177E-01
DAV:   4    -0.187605297752E+04    0.37296E-05   -0.18673E-03  5928   0.460E-02    0.131E-01
DAV:   5    -0.187605286347E+04    0.11405E-03   -0.26515E-04  5064   0.158E-02    0.809E-02
DAV:   6    -0.187605284265E+04    0.20821E-04   -0.17133E-04  4092   0.114E-02    0.381E-02
DAV:   7    -0.187605284484E+04   -0.21941E-05   -0.15411E-05  1860   0.577E-03
 maxForce  0.000000000000000E+000  1.000000000000000E-004
 dEPOT  0.139982347474643       1.000000000000000E-004
     24 T=    11. E= -.18754340E+04 F= -.18760528E+04 E0= -.18760528E+04  EK= 0.61887E+00 SP= 0.00E+00 SK= 0.00E+00
 bond charge predicted
 prediction of wavefunctions
       N       E                     dE             d eps       ncg     rms          rms(c)
DAV:   1    -0.187602291157E+04    0.29931E-01   -0.89331E-01  3312   0.131E+00    0.506E-01
DAV:   2    -0.187603643335E+04   -0.13522E-01   -0.14775E-01  3576   0.378E-01    0.232E-01
DAV:   3    -0.187603819277E+04   -0.17594E-02   -0.20033E-02  5868   0.147E-01    0.182E-01
DAV:   4    -0.187603818773E+04    0.50421E-05   -0.18745E-03  5952   0.471E-02    0.134E-01
DAV:   5    -0.187603806606E+04    0.12167E-03   -0.29774E-04  4956   0.163E-02    0.803E-02
DAV:   6    -0.187603805096E+04    0.15103E-04   -0.17298E-04  4092   0.111E-02    0.386E-02
DAV:   7    -0.187603805311E+04   -0.21589E-05   -0.12362E-05  1824   0.532E-03
 maxForce  0.000000000000000E+000  1.000000000000000E-004
 dEPOT  0.125190622329455       1.000000000000000E-004
     25 T=    12. E= -.18753911E+04 F= -.18760381E+04 E0= -.18760381E+04  EK= 0.64691E+00 SP= 0.00E+00 SK= 0.00E+00
 bond charge predicted
 prediction of wavefunctions
       N       E                     dE             d eps       ncg     rms          rms(c)
DAV:   1    -0.187600615620E+04    0.31895E-01   -0.10710E+00  3300   0.135E+00    0.550E-01
DAV:   2    -0.187602018153E+04   -0.14025E-01   -0.15297E-01  3468   0.390E-01    0.236E-01
DAV:   3    -0.187602208564E+04   -0.19041E-02   -0.21236E-02  5832   0.153E-01    0.190E-01
DAV:   4    -0.187602208558E+04    0.59517E-07   -0.20079E-03  6036   0.473E-02    0.139E-01
DAV:   5    -0.187602196162E+04    0.12396E-03   -0.32448E-04  4944   0.173E-02    0.805E-02
DAV:   6    -0.187602195315E+04    0.84717E-05   -0.17871E-04  4128   0.112E-02    0.392E-02
DAV:   7    -0.187602195588E+04   -0.27328E-05   -0.10183E-05  1800   0.498E-03
 maxForce  0.000000000000000E+000  1.000000000000000E-004
 dEPOT  0.109093388349493       1.000000000000000E-004
     26 T=    12. E= -.18753512E+04 F= -.18760220E+04 E0= -.18760220E+04  EK= 0.67079E+00 SP= 0.00E+00 SK= 0.00E+00
 bond charge predicted
 prediction of wavefunctions
       N       E                     dE             d eps       ncg     rms          rms(c)
DAV:   1    -0.187598940528E+04    0.32548E-01   -0.97139E-01  3300   0.134E+00    0.531E-01
DAV:   2    -0.187600337459E+04   -0.13969E-01   -0.15311E-01  3480   0.385E-01    0.237E-01
DAV:   3    -0.187600520193E+04   -0.18273E-02   -0.20932E-02  5856   0.149E-01    0.192E-01
DAV:   4    -0.187600519652E+04    0.54086E-05   -0.19465E-03  6036   0.480E-02    0.141E-01
DAV:   5    -0.187600506200E+04    0.13453E-03   -0.30474E-04  4872   0.168E-02    0.867E-02
DAV:   6    -0.187600504181E+04    0.20186E-04   -0.20491E-04  4116   0.119E-02    0.405E-02
DAV:   7    -0.187600504467E+04   -0.28634E-05   -0.18729E-05  1944   0.582E-03
 maxForce  0.000000000000000E+000  1.000000000000000E-004
 dEPOT  9.218218097134923E-002  1.000000000000000E-004
     27 T=    12. E= -.18753131E+04 F= -.18760050E+04 E0= -.18760050E+04  EK= 0.69197E+00 SP= 0.00E+00 SK= 0.00E+00
 bond charge predicted
 prediction of wavefunctions
       N       E                     dE             d eps       ncg     rms          rms(c)
DAV:   1    -0.187597094171E+04    0.34100E-01   -0.97180E-01  3276   0.133E+00    0.566E-01
DAV:   2    -0.187598545241E+04   -0.14511E-01   -0.15936E-01  3456   0.394E-01    0.256E-01
DAV:   3    -0.187598745160E+04   -0.19992E-02   -0.22509E-02  5856   0.155E-01    0.199E-01
DAV:   4    -0.187598743934E+04    0.12259E-04   -0.21052E-03  5988   0.497E-02    0.150E-01
DAV:   5    -0.187598729331E+04    0.14603E-03   -0.30864E-04  5004   0.171E-02    0.935E-02
DAV:   6    -0.187598726272E+04    0.30594E-04   -0.22661E-04  4044   0.128E-02    0.437E-02
DAV:   7    -0.187598726490E+04   -0.21829E-05   -0.32493E-05  2208   0.691E-03
 maxForce  0.000000000000000E+000  1.000000000000000E-004
 dEPOT  7.440240690971223E-002  1.000000000000000E-004
     28 T=    13. E= -.18752792E+04 F= -.18759873E+04 E0= -.18759873E+04  EK= 0.70807E+00 SP= 0.00E+00 SK= 0.00E+00
 bond charge predicted
 prediction of wavefunctions
       N       E                     dE             d eps       ncg     rms          rms(c)
DAV:   1    -0.187595114147E+04    0.36121E-01   -0.94243E-01  3276   0.135E+00    0.553E-01
DAV:   2    -0.187596544109E+04   -0.14300E-01   -0.15721E-01  3516   0.391E-01    0.251E-01
DAV:   3    -0.187596733028E+04   -0.18892E-02   -0.21452E-02  5832   0.153E-01    0.200E-01
DAV:   4    -0.187596732052E+04    0.97558E-05   -0.20341E-03  6036   0.491E-02    0.149E-01
DAV:   5    -0.187596717643E+04    0.14409E-03   -0.31229E-04  4920   0.172E-02    0.922E-02
DAV:   6    -0.187596715205E+04    0.24378E-04   -0.21839E-04  4104   0.124E-02    0.433E-02
DAV:   7    -0.187596715380E+04   -0.17478E-05   -0.19385E-05  1896   0.608E-03
 maxForce  0.000000000000000E+000  1.000000000000000E-004
 dEPOT  5.429130700554197E-002  1.000000000000000E-004
     29 T=    13. E= -.18752403E+04 F= -.18759672E+04 E0= -.18759672E+04  EK= 0.72686E+00 SP= 0.00E+00 SK= 0.00E+00
 bond charge predicted
 prediction of wavefunctions
       N       E                     dE             d eps       ncg     rms          rms(c)
DAV:   1    -0.187592944360E+04    0.37708E-01   -0.11057E+00  3300   0.141E+00    0.569E-01
DAV:   2    -0.187594436461E+04   -0.14921E-01   -0.16353E-01  3492   0.403E-01    0.246E-01
DAV:   3    -0.187594632772E+04   -0.19631E-02   -0.22122E-02  5892   0.157E-01    0.200E-01
DAV:   4    -0.187594631247E+04    0.15253E-04   -0.21500E-03  6012   0.492E-02    0.144E-01
DAV:   5    -0.187594617015E+04    0.14232E-03   -0.35535E-04  4716   0.183E-02    0.830E-02
DAV:   6    -0.187594616381E+04    0.63428E-05   -0.19795E-04  4140   0.113E-02    0.429E-02
DAV:   7    -0.187594616579E+04   -0.19816E-05   -0.10147E-05  1812   0.510E-03
 maxForce  0.000000000000000E+000  1.000000000000000E-004
 dEPOT  3.330329809591603E-002  1.000000000000000E-004
     30 T=    13. E= -.18751950E+04 F= -.18759462E+04 E0= -.18759462E+04  EK= 0.75122E+00 SP= 0.00E+00 SK= 0.00E+00
 bond charge predicted
 prediction of wavefunctions
       N       E                     dE             d eps       ncg     rms          rms(c)
DAV:   1    -0.187590621725E+04    0.39947E-01   -0.11448E+00  3288   0.138E+00    0.606E-01
DAV:   2    -0.187592165090E+04   -0.15434E-01   -0.16865E-01  3492   0.410E-01    0.264E-01
DAV:   3    -0.187592371590E+04   -0.20650E-02   -0.23098E-02  5856   0.157E-01    0.210E-01
DAV:   4    -0.187592370404E+04    0.11865E-04   -0.21789E-03  5964   0.497E-02    0.155E-01
DAV:   5    -0.187592356440E+04    0.13963E-03   -0.34015E-04  5088   0.179E-02    0.940E-02
DAV:   6    -0.187592354680E+04    0.17605E-04   -0.21214E-04  4200   0.122E-02    0.453E-02
DAV:   7    -0.187592354854E+04   -0.17430E-05   -0.14794E-05  1836   0.570E-03
 maxForce  0.000000000000000E+000  1.000000000000000E-004
 dEPOT  1.068604741499257E-002  1.000000000000000E-004
     31 T=    14. E= -.18751462E+04 F= -.18759235E+04 E0= -.18759235E+04  EK= 0.77733E+00 SP= 0.00E+00 SK= 0.00E+00
 bond charge predicted
 prediction of wavefunctions
       N       E                     dE             d eps       ncg     rms          rms(c)
DAV:   1    -0.187588232257E+04    0.41224E-01   -0.13309E+00  3288   0.145E+00    0.619E-01
DAV:   2    -0.187589906389E+04   -0.16741E-01   -0.18324E-01  3528   0.422E-01    0.276E-01
DAV:   3    -0.187590132436E+04   -0.22605E-02   -0.25438E-02  5892   0.164E-01    0.217E-01
DAV:   4    -0.187590129581E+04    0.28550E-04   -0.24222E-03  5928   0.526E-02    0.158E-01
DAV:   5    -0.187590113795E+04    0.15786E-03   -0.41281E-04  4704   0.194E-02    0.916E-02
DAV:   6    -0.187590113037E+04    0.75820E-05   -0.23322E-04  4140   0.120E-02    0.471E-02
DAV:   7    -0.187590113274E+04   -0.23655E-05   -0.13554E-05  1860   0.536E-03
 maxForce  0.000000000000000E+000  1.000000000000000E-004
 dEPOT  1.172975566100831E-002  1.000000000000000E-004
     32 T=    15. E= -.18750857E+04 F= -.18759011E+04 E0= -.18759011E+04  EK= 0.81542E+00 SP= 0.00E+00 SK= 0.00E+00
 bond charge predicted
 prediction of wavefunctions
       N       E                     dE             d eps       ncg     rms          rms(c)
DAV:   1    -0.187585929449E+04    0.41836E-01   -0.13665E+00  3288   0.150E+00    0.641E-01
DAV:   2    -0.187587707873E+04   -0.17784E-01   -0.19355E-01  3528   0.433E-01    0.280E-01
DAV:   3    -0.187587945656E+04   -0.23778E-02   -0.26768E-02  5832   0.168E-01    0.224E-01
DAV:   4    -0.187587944176E+04    0.14793E-04   -0.24852E-03  5964   0.539E-02    0.166E-01
DAV:   5    -0.187587928051E+04    0.16125E-03   -0.38496E-04  5172   0.188E-02    0.102E-01
DAV:   6    -0.187587925395E+04    0.26556E-04   -0.25490E-04  4284   0.134E-02    0.467E-02
DAV:   7    -0.187587925626E+04   -0.23088E-05   -0.22410E-05  1944   0.631E-03
 maxForce  0.000000000000000E+000  1.000000000000000E-004
 dEPOT  3.360622954301107E-002  1.000000000000000E-004
     33 T=    15. E= -.18750254E+04 F= -.18758793E+04 E0= -.18758793E+04  EK= 0.85382E+00 SP= 0.00E+00 SK= 0.00E+00
 bond charge predicted
 prediction of wavefunctions
       N       E                     dE             d eps       ncg     rms          rms(c)
DAV:   1    -0.187583635209E+04    0.42902E-01   -0.11785E+00  3300   0.147E+00    0.626E-01
DAV:   2    -0.187585379194E+04   -0.17440E-01   -0.19117E-01  3492   0.424E-01    0.283E-01
DAV:   3    -0.187585612281E+04   -0.23309E-02   -0.26754E-02  5820   0.169E-01    0.225E-01
DAV:   4    -0.187585609996E+04    0.22845E-04   -0.25024E-03  5964   0.541E-02    0.167E-01
DAV:   5    -0.187585591326E+04    0.18670E-03   -0.40783E-04  4980   0.195E-02    0.104E-01
DAV:   6    -0.187585588372E+04    0.29537E-04   -0.28046E-04  4188   0.137E-02    0.501E-02
DAV:   7    -0.187585588501E+04   -0.12867E-05   -0.23560E-05  1992   0.648E-03
 maxForce  0.000000000000000E+000  1.000000000000000E-004
 dEPOT  5.697748573243189E-002  1.000000000000000E-004
     34 T=    16. E= -.18749693E+04 F= -.18758559E+04 E0= -.18758559E+04  EK= 0.88655E+00 SP= 0.00E+00 SK= 0.00E+00
 bond charge predicted
 prediction of wavefunctions
       N       E                     dE             d eps       ncg     rms          rms(c)
DAV:   1    -0.187580902442E+04    0.46859E-01   -0.13168E+00  3288   0.149E+00    0.666E-01
DAV:   2    -0.187582741673E+04   -0.18392E-01   -0.20091E-01  3468   0.438E-01    0.300E-01
DAV:   3    -0.187582989644E+04   -0.24797E-02   -0.27798E-02  5844   0.173E-01    0.229E-01
DAV:   4    -0.187582988109E+04    0.15350E-04   -0.26452E-03  5976   0.545E-02    0.173E-01
DAV:   5    -0.187582971029E+04    0.17081E-03   -0.42342E-04  5040   0.197E-02    0.102E-01
DAV:   6    -0.187582969043E+04    0.19858E-04   -0.25069E-04  4260   0.132E-02    0.504E-02
DAV:   7    -0.187582969251E+04   -0.20818E-05   -0.19070E-05  1980   0.606E-03
 maxForce  0.000000000000000E+000  1.000000000000000E-004
 dEPOT  8.316998200120906E-002  1.000000000000000E-004
     35 T=    16. E= -.18749146E+04 F= -.18758297E+04 E0= -.18758297E+04  EK= 0.91513E+00 SP= 0.00E+00 SK= 0.00E+00
 bond charge predicted
 prediction of wavefunctions
       N       E                     dE             d eps       ncg     rms          rms(c)
DAV:   1    -0.187567092228E+04    0.15877E+00   -0.12083E+00  3456   0.119E+01    0.700E-01
DAV:   2    -0.187579642713E+04   -0.12550E+00   -0.12894E+00  3720   0.642E-01    0.344E-01
DAV:   3    -0.187580192464E+04   -0.54975E-02   -0.64074E-02  5412   0.190E-01    0.223E-01
DAV:   4    -0.187580236948E+04   -0.44484E-03   -0.77806E-03  6036   0.637E-02    0.181E-01
DAV:   5    -0.187580214602E+04    0.22346E-03   -0.69397E-04  5184   0.227E-02    0.114E-01
DAV:   6    -0.187580207048E+04    0.75535E-04   -0.33195E-04  4572   0.153E-02    0.594E-02
DAV:   7    -0.187580206891E+04    0.15757E-05   -0.43876E-05  2964   0.719E-03
 maxForce  0.000000000000000E+000  1.000000000000000E-004
 dEPOT  0.110793583288114       1.000000000000000E-004
     36 T=    17. E= -.18748640E+04 F= -.18758021E+04 E0= -.18758021E+04  EK= 0.93810E+00 SP= 0.00E+00 SK= 0.00E+00
 bond charge predicted
 prediction of wavefunctions
       N       E                     dE             d eps       ncg     rms          rms(c)
DAV:   1    -0.187575116427E+04    0.50906E-01   -0.11914E+00  3324   0.151E+00    0.650E-01
DAV:   2    -0.187576989115E+04   -0.18727E-01   -0.20624E-01  3480   0.443E-01    0.292E-01
DAV:   3    -0.187577236505E+04   -0.24739E-02   -0.28184E-02  5868   0.176E-01    0.231E-01
DAV:   4    -0.187577234230E+04    0.22744E-04   -0.26617E-03  5976   0.551E-02    0.173E-01
DAV:   5    -0.187577215389E+04    0.18841E-03   -0.39939E-04  5088   0.194E-02    0.111E-01
DAV:   6    -0.187577211090E+04    0.42987E-04   -0.28792E-04  4164   0.140E-02    0.521E-02
DAV:   7    -0.187577211227E+04   -0.13661E-05   -0.34585E-05  2172   0.702E-03
 maxForce  0.000000000000000E+000  1.000000000000000E-004
 dEPOT  0.140750222712313       1.000000000000000E-004
     37 T=    17. E= -.18748188E+04 F= -.18757721E+04 E0= -.18757721E+04  EK= 0.95328E+00 SP= 0.00E+00 SK= 0.00E+00
 bond charge predicted
 prediction of wavefunctions
       N       E                     dE             d eps       ncg     rms          rms(c)
DAV:   1    -0.187571937964E+04    0.52731E-01   -0.13590E+00  3336   0.154E+00    0.694E-01
DAV:   2    -0.187573912932E+04   -0.19750E-01   -0.21649E-01  3468   0.457E-01    0.309E-01
DAV:   3    -0.187574177710E+04   -0.26478E-02   -0.29897E-02  5844   0.180E-01    0.241E-01
DAV:   4    -0.187574175079E+04    0.26307E-04   -0.28567E-03  5916   0.571E-02    0.181E-01
DAV:   5    -0.187574156260E+04    0.18819E-03   -0.44213E-04  5196   0.202E-02    0.113E-01
DAV:   6    -0.187574152722E+04    0.35384E-04   -0.28510E-04  4200   0.141E-02    0.541E-02
DAV:   7    -0.187574152917E+04   -0.19497E-05   -0.29168E-05  2088   0.683E-03
 maxForce  0.000000000000000E+000  1.000000000000000E-004
 dEPOT  0.171333322872897       1.000000000000000E-004
     38 T=    17. E= -.18747759E+04 F= -.18757415E+04 E0= -.18757415E+04  EK= 0.96558E+00 SP= 0.00E+00 SK= 0.00E+00
 bond charge predicted
 prediction of wavefunctions
       N       E                     dE             d eps       ncg     rms          rms(c)
DAV:   1    -0.187568678297E+04    0.54744E-01   -0.15761E+00  3300   0.157E+00    0.693E-01
DAV:   2    -0.187570717392E+04   -0.20391E-01   -0.22233E-01  3492   0.467E-01    0.311E-01
DAV:   3    -0.187570993599E+04   -0.27621E-02   -0.30933E-02  5844   0.180E-01    0.248E-01
DAV:   4    -0.187570991695E+04    0.19033E-04   -0.29348E-03  5904   0.583E-02    0.185E-01
DAV:   5    -0.187570974318E+04    0.17377E-03   -0.43728E-04  5304   0.201E-02    0.116E-01
DAV:   6    -0.187570970845E+04    0.34733E-04   -0.29125E-04  4380   0.144E-02    0.522E-02
DAV:   7    -0.187570971164E+04   -0.31898E-05   -0.27480E-05  1992   0.669E-03
 maxForce  0.000000000000000E+000  1.000000000000000E-004
 dEPOT  0.203150850680913       1.000000000000000E-004
     39 T=    18. E= -.18747211E+04 F= -.18757097E+04 E0= -.18757097E+04  EK= 0.98865E+00 SP= 0.00E+00 SK= 0.00E+00
 bond charge predicted
 prediction of wavefunctions
       N       E                     dE             d eps       ncg     rms          rms(c)
DAV:   1    -0.187565367566E+04    0.56033E-01   -0.15692E+00  3288   0.158E+00    0.710E-01
DAV:   2    -0.187567502520E+04   -0.21350E-01   -0.23334E-01  3492   0.474E-01    0.319E-01
DAV:   3    -0.187567788679E+04   -0.28616E-02   -0.32183E-02  5904   0.183E-01    0.248E-01
DAV:   4    -0.187567787051E+04    0.16279E-04   -0.30114E-03  5904   0.590E-02    0.186E-01
DAV:   5    -0.187567767918E+04    0.19134E-03   -0.45696E-04  5220   0.208E-02    0.115E-01
DAV:   6    -0.187567764447E+04    0.34704E-04   -0.31361E-04  4320   0.150E-02    0.523E-02
DAV:   7    -0.187567764666E+04   -0.21877E-05   -0.29407E-05  2124   0.684E-03
 maxForce  0.000000000000000E+000  1.000000000000000E-004
 dEPOT  0.235215832730546       1.000000000000000E-004
     40 T=    18. E= -.18746631E+04 F= -.18756776E+04 E0= -.18756776E+04  EK= 0.10145E+01 SP= 0.00E+00 SK= 0.00E+00
 bond charge predicted
 prediction of wavefunctions
       N       E                     dE             d eps       ncg     rms          rms(c)
DAV:   1    -0.187561921179E+04    0.58433E-01   -0.14691E+00  3324   0.151E+00    0.683E-01
DAV:   2    -0.187563966527E+04   -0.20453E-01   -0.22447E-01  3516   0.459E-01    0.316E-01
DAV:   3    -0.187564242640E+04   -0.27611E-02   -0.31380E-02  5868   0.180E-01    0.242E-01
DAV:   4    -0.187564239680E+04    0.29599E-04   -0.29694E-03  5916   0.582E-02    0.180E-01
DAV:   5    -0.187564219673E+04    0.20007E-03   -0.49043E-04  5052   0.211E-02    0.108E-01
DAV:   6    -0.187564217478E+04    0.21951E-04   -0.29564E-04  4320   0.139E-02    0.537E-02
DAV:   7    -0.187564217676E+04   -0.19846E-05   -0.16895E-05  1908   0.581E-03
 maxForce  0.000000000000000E+000  1.000000000000000E-004
 dEPOT  0.270685731131607       1.000000000000000E-004
     41 T=    18. E= -.18746022E+04 F= -.18756422E+04 E0= -.18756422E+04  EK= 0.10399E+01 SP= 0.00E+00 SK= 0.00E+00
 bond charge predicted
 prediction of wavefunctions
       N       E                     dE             d eps       ncg     rms          rms(c)
DAV:   1    -0.187558059011E+04    0.61585E-01   -0.15682E+00  3276   0.161E+00    0.712E-01
DAV:   2    -0.187560230773E+04   -0.21718E-01   -0.23840E-01  3516   0.474E-01    0.318E-01
DAV:   3    -0.187560522852E+04   -0.29208E-02   -0.33010E-02  5856   0.187E-01    0.247E-01
DAV:   4    -0.187560520278E+04    0.25732E-04   -0.31329E-03  5964   0.603E-02    0.183E-01
DAV:   5    -0.187560499499E+04    0.20779E-03   -0.52084E-04  5076   0.217E-02    0.109E-01
DAV:   6    -0.187560497408E+04    0.20907E-04   -0.29388E-04  4284   0.141E-02    0.544E-02
DAV:   7    -0.187560497601E+04   -0.19251E-05   -0.18999E-05  1896   0.618E-03
 maxForce  0.000000000000000E+000  1.000000000000000E-004
 dEPOT  0.307886483922857       1.000000000000000E-004
     42 T=    19. E= -.18745350E+04 F= -.18756050E+04 E0= -.18756050E+04  EK= 0.10699E+01 SP= 0.00E+00 SK= 0.00E+00
 bond charge predicted
 prediction of wavefunctions
       N       E                     dE             d eps       ncg     rms          rms(c)
DAV:   1    -0.187554183665E+04    0.63137E-01   -0.15204E+00  3288   0.159E+00    0.718E-01
DAV:   2    -0.187556329735E+04   -0.21461E-01   -0.23617E-01  3444   0.471E-01    0.322E-01
DAV:   3    -0.187556618433E+04   -0.28870E-02   -0.33018E-02  5868   0.186E-01    0.253E-01
DAV:   4    -0.187556615046E+04    0.33870E-04   -0.30830E-03  5976   0.598E-02    0.188E-01
DAV:   5    -0.187556593925E+04    0.21121E-03   -0.48016E-04  5280   0.209E-02    0.119E-01
DAV:   6    -0.187556589701E+04    0.42237E-04   -0.32594E-04  4308   0.150E-02    0.563E-02
DAV:   7    -0.187556590068E+04   -0.36626E-05   -0.38834E-05  2412   0.715E-03
 maxForce  0.000000000000000E+000  1.000000000000000E-004
 dEPOT  0.346961816412886       1.000000000000000E-004
     43 T=    19. E= -.18744900E+04 F= -.18755659E+04 E0= -.18755659E+04  EK= 0.10759E+01 SP= 0.00E+00 SK= 0.00E+00
 bond charge predicted
 prediction of wavefunctions
       N       E                     dE             d eps       ncg     rms          rms(c)
DAV:   1    -0.187550210968E+04    0.63787E-01   -0.16744E+00  3312   0.169E+00    0.741E-01
DAV:   2    -0.187552427162E+04   -0.22162E-01   -0.24277E-01  3480   0.479E-01    0.332E-01
DAV:   3    -0.187552724011E+04   -0.29685E-02   -0.33235E-02  5832   0.188E-01    0.264E-01
DAV:   4    -0.187552721521E+04    0.24899E-04   -0.31580E-03  6000   0.596E-02    0.197E-01
DAV:   5    -0.187552701338E+04    0.20183E-03   -0.50056E-04  5304   0.214E-02    0.122E-01
DAV:   6    -0.187552698224E+04    0.31140E-04   -0.31761E-04  4380   0.149E-02    0.570E-02
DAV:   7    -0.187552698535E+04   -0.31084E-05   -0.25519E-05  2016   0.665E-03
 maxForce  0.000000000000000E+000  1.000000000000000E-004
 dEPOT  0.385877142358595       1.000000000000000E-004
     44 T=    20. E= -.18744297E+04 F= -.18755270E+04 E0= -.18755270E+04  EK= 0.10972E+01 SP= 0.00E+00 SK= 0.00E+00
 bond charge predicted
 prediction of wavefunctions
       N       E                     dE             d eps       ncg     rms          rms(c)
DAV:   1    -0.187541903756E+04    0.10794E+00   -0.15106E+00  3444   0.111E+01    0.741E-01
DAV:   2    -0.187548267984E+04   -0.63642E-01   -0.66704E-01  3252   0.719E-01    0.336E-01
DAV:   3    -0.187548772993E+04   -0.50501E-02   -0.55602E-02  5796   0.265E-01    0.251E-01
DAV:   4    -0.187548773063E+04   -0.69605E-06   -0.46538E-03  6252   0.713E-02    0.187E-01
DAV:   5    -0.187548746534E+04    0.26529E-03   -0.65891E-04  4884   0.263E-02    0.106E-01
DAV:   6    -0.187548744100E+04    0.24337E-04   -0.36649E-04  4476   0.149E-02    0.616E-02
DAV:   7    -0.187548744179E+04   -0.79008E-06   -0.17725E-05  1872   0.557E-03
 maxForce  0.000000000000000E+000  1.000000000000000E-004
 dEPOT  0.425420698873722       1.000000000000000E-004
     45 T=    20. E= -.18743495E+04 F= -.18754874E+04 E0= -.18754874E+04  EK= 0.11379E+01 SP= 0.00E+00 SK= 0.00E+00
 bond charge predicted
 prediction of wavefunctions
       N       E                     dE             d eps       ncg     rms          rms(c)
DAV:   1    -0.187541950511E+04    0.67936E-01   -0.17827E+00  3336   0.199E+00    0.762E-01
DAV:   2    -0.187544596855E+04   -0.26463E-01   -0.28837E-01  3372   0.523E-01    0.328E-01
DAV:   3    -0.187544917081E+04   -0.32023E-02   -0.36464E-02  5868   0.201E-01    0.267E-01
DAV:   4    -0.187544913332E+04    0.37493E-04   -0.35071E-03  6000   0.636E-02    0.198E-01
DAV:   5    -0.187544889501E+04    0.23831E-03   -0.54924E-04  5256   0.228E-02    0.121E-01
DAV:   6    -0.187544885431E+04    0.40691E-04   -0.36923E-04  4392   0.161E-02    0.561E-02
DAV:   7    -0.187544885915E+04   -0.48351E-05   -0.37647E-05  2328   0.734E-03
 maxForce  0.000000000000000E+000  1.000000000000000E-004
 dEPOT  0.464003343240847       1.000000000000000E-004
     46 T=    21. E= -.18742753E+04 F= -.18754489E+04 E0= -.18754489E+04  EK= 0.11735E+01 SP= 0.00E+00 SK= 0.00E+00
 bond charge predicted
 prediction of wavefunctions
       N       E                     dE             d eps       ncg     rms          rms(c)
DAV:   1    -0.187538516583E+04    0.63688E-01   -0.16784E+00  3312   0.170E+00    0.744E-01
DAV:   2    -0.187540819554E+04   -0.23030E-01   -0.25393E-01  3480   0.494E-01    0.337E-01
DAV:   3    -0.187541132598E+04   -0.31304E-02   -0.35386E-02  5868   0.193E-01    0.270E-01
DAV:   4    -0.187541128374E+04    0.42247E-04   -0.34108E-03  5940   0.623E-02    0.201E-01
DAV:   5    -0.187541105079E+04    0.23295E-03   -0.52670E-04  5196   0.222E-02    0.126E-01
DAV:   6    -0.187541100630E+04    0.44492E-04   -0.37827E-04  4320   0.161E-02    0.586E-02
DAV:   7    -0.187541101063E+04   -0.43383E-05   -0.50876E-05  2640   0.767E-03
 maxForce  0.000000000000000E+000  1.000000000000000E-004
 dEPOT  0.501851858531381       1.000000000000000E-004
     47 T=    21. E= -.18742033E+04 F= -.18754110E+04 E0= -.18754110E+04  EK= 0.12077E+01 SP= 0.00E+00 SK= 0.00E+00
 bond charge predicted
 prediction of wavefunctions
       N       E                     dE             d eps       ncg     rms          rms(c)
DAV:   1    -0.187534985845E+04    0.61148E-01   -0.19309E+00  3324   0.181E+00    0.786E-01
DAV:   2    -0.187537473230E+04   -0.24874E-01   -0.27265E-01  3492   0.511E-01    0.350E-01
DAV:   3    -0.187537804784E+04   -0.33155E-02   -0.37414E-02  5880   0.197E-01    0.279E-01
DAV:   4    -0.187537800524E+04    0.42600E-04   -0.35701E-03  5952   0.638E-02    0.208E-01
DAV:   5    -0.187537776864E+04    0.23659E-03   -0.55735E-04  5316   0.226E-02    0.131E-01
DAV:   6    -0.187537772175E+04    0.46891E-04   -0.37572E-04  4404   0.160E-02    0.602E-02
DAV:   7    -0.187537772501E+04   -0.32566E-05   -0.39272E-05  2376   0.718E-03
 maxForce  0.000000000000000E+000  1.000000000000000E-004
 dEPOT  0.535137483286462       1.000000000000000E-004
     48 T=    22. E= -.18741265E+04 F= -.18753777E+04 E0= -.18753777E+04  EK= 0.12512E+01 SP= 0.00E+00 SK= 0.00E+00
 bond charge predicted
 prediction of wavefunctions
       N       E                     dE             d eps       ncg     rms          rms(c)
DAV:   1    -0.187531558953E+04    0.62132E-01   -0.17352E+00  3336   0.176E+00    0.790E-01
DAV:   2    -0.187534019706E+04   -0.24608E-01   -0.27041E-01  3468   0.513E-01    0.353E-01
DAV:   3    -0.187534347262E+04   -0.32756E-02   -0.37117E-02  5892   0.200E-01    0.277E-01
DAV:   4    -0.187534343318E+04    0.39441E-04   -0.36017E-03  6048   0.637E-02    0.207E-01
DAV:   5    -0.187534318524E+04    0.24793E-03   -0.57099E-04  5280   0.228E-02    0.128E-01
DAV:   6    -0.187534314357E+04    0.41677E-04   -0.36209E-04  4332   0.158E-02    0.625E-02
DAV:   7    -0.187534314455E+04   -0.98691E-06   -0.27791E-05  2004   0.696E-03
 maxForce  0.000000000000000E+000  1.000000000000000E-004
 dEPOT  0.569717939292104       1.000000000000000E-004
     49 T=    23. E= -.18740487E+04 F= -.18753431E+04 E0= -.18753431E+04  EK= 0.12944E+01 SP= 0.00E+00 SK= 0.00E+00
 bond charge predicted
 prediction of wavefunctions
       N       E                     dE             d eps       ncg     rms          rms(c)
DAV:   1    -0.187528153403E+04    0.61610E-01   -0.17964E+00  3300   0.185E+00    0.806E-01
DAV:   2    -0.187530766277E+04   -0.26129E-01   -0.28660E-01  3444   0.528E-01    0.356E-01
DAV:   3    -0.187531106720E+04   -0.34044E-02   -0.38604E-02  5808   0.206E-01    0.286E-01
DAV:   4    -0.187531102922E+04    0.37986E-04   -0.37729E-03  6036   0.655E-02    0.213E-01
DAV:   5    -0.187531077998E+04    0.24924E-03   -0.56752E-04  5376   0.231E-02    0.134E-01
DAV:   6    -0.187531073019E+04    0.49787E-04   -0.39423E-04  4464   0.169E-02    0.625E-02
DAV:   7    -0.187531073368E+04   -0.34845E-05   -0.43068E-05  2472   0.775E-03
 maxForce  0.000000000000000E+000  1.000000000000000E-004
 dEPOT  0.602128814051184       1.000000000000000E-004
     50 T=    24. E= -.18739714E+04 F= -.18753107E+04 E0= -.18753107E+04  EK= 0.13393E+01 SP= 0.00E+00 SK= 0.00E+00
 bond charge predicted
 prediction of wavefunctions
       N       E                     dE             d eps       ncg     rms          rms(c)
DAV:   1    -0.187525125742E+04    0.59473E-01   -0.19733E+00  3324   0.184E+00    0.808E-01
DAV:   2    -0.187527816015E+04   -0.26903E-01   -0.29654E-01  3552   0.540E-01    0.362E-01
DAV:   3    -0.187528164859E+04   -0.34884E-02   -0.39874E-02  5844   0.207E-01    0.290E-01
DAV:   4    -0.187528159888E+04    0.49717E-04   -0.38486E-03  5964   0.662E-02    0.215E-01
DAV:   5    -0.187528131507E+04    0.28380E-03   -0.65179E-04  5064   0.246E-02    0.132E-01
DAV:   6    -0.187528127606E+04    0.39016E-04   -0.42501E-04  4320   0.167E-02    0.635E-02
DAV:   7    -0.187528127922E+04   -0.31606E-05   -0.39375E-05  2316   0.741E-03
 maxForce  0.000000000000000E+000  1.000000000000000E-004
 dEPOT  0.631583275553794       1.000000000000000E-004
     51 T=    25. E= -.18738878E+04 F= -.18752813E+04 E0= -.18752813E+04  EK= 0.13935E+01 SP= 0.00E+00 SK= 0.00E+00
 bond charge predicted
 prediction of wavefunctions
       N       E                     dE             d eps       ncg     rms          rms(c)
DAV:   1    -0.187522146933E+04    0.59807E-01   -0.21060E+00  3420   0.189E+00    0.837E-01
DAV:   2    -0.187524912636E+04   -0.27657E-01   -0.30300E-01  3468   0.539E-01    0.367E-01
DAV:   3    -0.187525285080E+04   -0.37244E-02   -0.41867E-02  5784   0.212E-01    0.297E-01
DAV:   4    -0.187525282391E+04    0.26896E-04   -0.40773E-03  5964   0.681E-02    0.222E-01
DAV:   5    -0.187525255047E+04    0.27343E-03   -0.63893E-04  5304   0.247E-02    0.140E-01
DAV:   6    -0.187525249974E+04    0.50735E-04   -0.43168E-04  4488   0.175E-02    0.656E-02
DAV:   7    -0.187525250288E+04   -0.31441E-05   -0.42957E-05  2448   0.764E-03
 maxForce  0.000000000000000E+000  1.000000000000000E-004
 dEPOT  0.660359609832312       1.000000000000000E-004
     52 T=    26. E= -.18738077E+04 F= -.18752525E+04 E0= -.18752525E+04  EK= 0.14448E+01 SP= 0.00E+00 SK= 0.00E+00
 bond charge predicted
 prediction of wavefunctions
       N       E                     dE             d eps       ncg     rms          rms(c)
DAV:   1    -0.187519254824E+04    0.59951E-01   -0.20337E+00  3288   0.193E+00    0.846E-01
DAV:   2    -0.187522108912E+04   -0.28541E-01   -0.31358E-01  3468   0.544E-01    0.377E-01
DAV:   3    -0.187522497070E+04   -0.38816E-02   -0.43822E-02  5856   0.218E-01    0.302E-01
DAV:   4    -0.187522492746E+04    0.43239E-04   -0.42460E-03  6060   0.685E-02    0.226E-01
DAV:   5    -0.187522462187E+04    0.30559E-03   -0.66088E-04  5196   0.247E-02    0.141E-01
DAV:   6    -0.187522456949E+04    0.52384E-04   -0.46864E-04  4500   0.181E-02    0.678E-02
DAV:   7    -0.187522457270E+04   -0.32148E-05   -0.48419E-05  2664   0.789E-03
 maxForce  0.000000000000000E+000  1.000000000000000E-004
 dEPOT  0.688289789734199       1.000000000000000E-004
     53 T=    27. E= -.18737207E+04 F= -.18752246E+04 E0= -.18752246E+04  EK= 0.15039E+01 SP= 0.00E+00 SK= 0.00E+00
 bond charge predicted
 prediction of wavefunctions
       N       E                     dE             d eps       ncg     rms          rms(c)
DAV:   1    -0.187516146711E+04    0.63102E-01   -0.21820E+00  3300   0.194E+00    0.865E-01
DAV:   2    -0.187519144280E+04   -0.29976E-01   -0.32901E-01  3528   0.569E-01    0.389E-01
DAV:   3    -0.187519542584E+04   -0.39830E-02   -0.44850E-02  5880   0.222E-01    0.305E-01
DAV:   4    -0.187519538628E+04    0.39559E-04   -0.43790E-03  6048   0.688E-02    0.228E-01
DAV:   5    -0.187519510329E+04    0.28298E-03   -0.68721E-04  5328   0.252E-02    0.139E-01
DAV:   6    -0.187519506270E+04    0.40597E-04   -0.41634E-04  4536   0.172E-02    0.677E-02
DAV:   7    -0.187519506528E+04   -0.25840E-05   -0.32131E-05  2184   0.740E-03
 maxForce  0.000000000000000E+000  1.000000000000000E-004
 dEPOT  0.717797210429353       1.000000000000000E-004
     54 T=    28. E= -.18736040E+04 F= -.18751951E+04 E0= -.18751951E+04  EK= 0.15910E+01 SP= 0.00E+00 SK= 0.00E+00
 bond charge predicted
 prediction of wavefunctions
       N       E                     dE             d eps       ncg     rms          rms(c)
DAV:   1    -0.187512739960E+04    0.67663E-01   -0.21325E+00  3288   0.193E+00    0.870E-01
DAV:   2    -0.187515869511E+04   -0.31296E-01   -0.34390E-01  3516   0.581E-01    0.388E-01
DAV:   3    -0.187516263869E+04   -0.39436E-02   -0.45686E-02  5868   0.221E-01    0.305E-01
DAV:   4    -0.187516258897E+04    0.49721E-04   -0.44077E-03  5988   0.708E-02    0.226E-01
DAV:   5    -0.187516227268E+04    0.31629E-03   -0.70584E-04  5172   0.257E-02    0.142E-01
DAV:   6    -0.187516221572E+04    0.56957E-04   -0.47796E-04  4500   0.181E-02    0.683E-02
DAV:   7    -0.187516221814E+04   -0.24230E-05   -0.48075E-05  2700   0.787E-03
 maxForce  0.000000000000000E+000  1.000000000000000E-004
 dEPOT  0.750644348376454       1.000000000000000E-004
     55 T=    30. E= -.18734789E+04 F= -.18751622E+04 E0= -.18751622E+04  EK= 0.16833E+01 SP= 0.00E+00 SK= 0.00E+00
 bond charge predicted
 prediction of wavefunctions
       N       E                     dE             d eps       ncg     rms          rms(c)
DAV:   1    -0.187508729618E+04    0.74920E-01   -0.22793E+00  3336   0.203E+00    0.900E-01
DAV:   2    -0.187512019801E+04   -0.32902E-01   -0.35891E-01  3492   0.588E-01    0.404E-01
DAV:   3    -0.187512445452E+04   -0.42565E-02   -0.47918E-02  5880   0.231E-01    0.318E-01
DAV:   4    -0.187512441967E+04    0.34851E-04   -0.46714E-03  6036   0.705E-02    0.239E-01
DAV:   5    -0.187512410332E+04    0.31635E-03   -0.71154E-04  5220   0.261E-02    0.147E-01
DAV:   6    -0.187512405694E+04    0.46380E-04   -0.48453E-04  4500   0.183E-02    0.716E-02
DAV:   7    -0.187512406028E+04   -0.33479E-05   -0.47289E-05  2748   0.807E-03
 maxForce  0.000000000000000E+000  1.000000000000000E-004
 dEPOT  0.788802207669733       1.000000000000000E-004
     56 T=    31. E= -.18733785E+04 F= -.18751241E+04 E0= -.18751241E+04  EK= 0.17455E+01 SP= 0.00E+00 SK= 0.00E+00
 bond charge predicted
 prediction of wavefunctions
       N       E                     dE             d eps       ncg     rms          rms(c)
DAV:   1    -0.187504816923E+04    0.75888E-01   -0.22220E+00  3288   0.202E+00    0.891E-01
DAV:   2    -0.187508060212E+04   -0.32433E-01   -0.35627E-01  3420   0.580E-01    0.398E-01
DAV:   3    -0.187508482491E+04   -0.42228E-02   -0.48016E-02  5844   0.232E-01    0.320E-01
DAV:   4    -0.187508478831E+04    0.36595E-04   -0.46665E-03  5988   0.717E-02    0.238E-01
DAV:   5    -0.187508447994E+04    0.30837E-03   -0.67007E-04  5388   0.250E-02    0.155E-01
DAV:   6    -0.187508440614E+04    0.73802E-04   -0.48067E-04  4416   0.185E-02    0.728E-02
DAV:   7    -0.187508441206E+04   -0.59261E-05   -0.96182E-05  3888   0.916E-03
 maxForce  0.000000000000000E+000  1.000000000000000E-004
 dEPOT  0.828450428718725       1.000000000000000E-004
     57 T=    32. E= -.18733110E+04 F= -.18750844E+04 E0= -.18750844E+04  EK= 0.17734E+01 SP= 0.00E+00 SK= 0.00E+00
 bond charge predicted
 prediction of wavefunctions
       N       E                     dE             d eps       ncg     rms          rms(c)
DAV:   1    -0.187500501438E+04    0.79392E-01   -0.24382E+00  3336   0.209E+00    0.925E-01
DAV:   2    -0.187503853636E+04   -0.33522E-01   -0.36797E-01  3444   0.590E-01    0.415E-01
DAV:   3    -0.187504287947E+04   -0.43431E-02   -0.48949E-02  5880   0.233E-01    0.334E-01
DAV:   4    -0.187504284143E+04    0.38043E-04   -0.47244E-03  5928   0.721E-02    0.251E-01
DAV:   5    -0.187504252804E+04    0.31338E-03   -0.72311E-04  5448   0.260E-02    0.161E-01
DAV:   6    -0.187504246064E+04    0.67401E-04   -0.49326E-04  4572   0.185E-02    0.744E-02
DAV:   7    -0.187504246650E+04   -0.58526E-05   -0.73255E-05  3420   0.840E-03
 maxForce  0.000000000000000E+000  1.000000000000000E-004
 dEPOT  0.870395995462104       1.000000000000000E-004
     58 T=    31. E= -.18732720E+04 F= -.18750425E+04 E0= -.18750425E+04  EK= 0.17704E+01 SP= 0.00E+00 SK= 0.00E+00
 bond charge predicted
 prediction of wavefunctions
       N       E                     dE             d eps       ncg     rms          rms(c)
DAV:   1    -0.187495888383E+04    0.83577E-01   -0.22833E+00  3360   0.198E+00    0.905E-01
DAV:   2    -0.187499169006E+04   -0.32806E-01   -0.35970E-01  3480   0.593E-01    0.408E-01
DAV:   3    -0.187499590500E+04   -0.42149E-02   -0.47840E-02  5808   0.229E-01    0.325E-01
DAV:   4    -0.187499585848E+04    0.46523E-04   -0.46134E-03  6024   0.716E-02    0.244E-01
DAV:   5    -0.187499552750E+04    0.33098E-03   -0.73317E-04  5256   0.258E-02    0.153E-01
DAV:   6    -0.187499547304E+04    0.54466E-04   -0.48029E-04  4536   0.180E-02    0.737E-02
DAV:   7    -0.187499547587E+04   -0.28299E-05   -0.47113E-05  2532   0.796E-03
 maxForce  0.000000000000000E+000  1.000000000000000E-004
 dEPOT  0.917386626202870       1.000000000000000E-004
     59 T=    31. E= -.18732306E+04 F= -.18749955E+04 E0= -.18749955E+04  EK= 0.17649E+01 SP= 0.00E+00 SK= 0.00E+00
 bond charge predicted
 prediction of wavefunctions
       N       E                     dE             d eps       ncg     rms          rms(c)
DAV:   1    -0.187491450773E+04    0.80965E-01   -0.22446E+00  3348   0.197E+00    0.951E-01
DAV:   2    -0.187494717782E+04   -0.32670E-01   -0.35725E-01  3432   0.574E-01    0.421E-01
DAV:   3    -0.187495147267E+04   -0.42948E-02   -0.48688E-02  5796   0.229E-01    0.322E-01
DAV:   4    -0.187495142837E+04    0.44295E-04   -0.47657E-03  6024   0.724E-02    0.245E-01
DAV:   5    -0.187495110205E+04    0.32633E-03   -0.74495E-04  5220   0.263E-02    0.152E-01
DAV:   6    -0.187495105015E+04    0.51894E-04   -0.47420E-04  4596   0.181E-02    0.761E-02
DAV:   7    -0.187495105112E+04   -0.96782E-06   -0.39792E-05  2484   0.775E-03
 maxForce  0.000000000000000E+000  1.000000000000000E-004
 dEPOT  0.961811369419820       1.000000000000000E-004
     60 T=    32. E= -.18731498E+04 F= -.18749511E+04 E0= -.18749511E+04  EK= 0.18012E+01 SP= 0.00E+00 SK= 0.00E+00
 bond charge predicted
 prediction of wavefunctions
       N       E                     dE             d eps       ncg     rms          rms(c)
DAV:   1    -0.187486811868E+04    0.82931E-01   -0.23642E+00  3300   0.201E+00    0.945E-01
DAV:   2    -0.187490297200E+04   -0.34853E-01   -0.38318E-01  3480   0.600E-01    0.434E-01
DAV:   3    -0.187490766056E+04   -0.46886E-02   -0.53084E-02  5808   0.238E-01    0.336E-01
DAV:   4    -0.187490760931E+04    0.51253E-04   -0.50627E-03  6024   0.752E-02    0.256E-01
DAV:   5    -0.187490725955E+04    0.34976E-03   -0.73531E-04  5484   0.266E-02    0.168E-01
DAV:   6    -0.187490716564E+04    0.93909E-04   -0.57092E-04  4452   0.205E-02    0.778E-02
DAV:   7    -0.187490717374E+04   -0.81008E-05   -0.12343E-04  4044   0.102E-02    0.452E-02
DAV:   8    -0.187490717502E+04   -0.12772E-05   -0.97540E-06  1860   0.476E-03
 maxForce  0.000000000000000E+000  1.000000000000000E-004
 dEPOT   1.00568747568855       1.000000000000000E-004
     61 T=    33. E= -.18730446E+04 F= -.18749072E+04 E0= -.18749072E+04  EK= 0.18626E+01 SP= 0.00E+00 SK= 0.00E+00
 bond charge predicted
 prediction of wavefunctions
       N       E                     dE             d eps       ncg     rms          rms(c)
DAV:   1    -0.187482902141E+04    0.78152E-01   -0.24523E+00  3312   0.210E+00    0.962E-01
DAV:   2    -0.187486376016E+04   -0.34739E-01   -0.38006E-01  3480   0.599E-01    0.420E-01
DAV:   3    -0.187486823638E+04   -0.44762E-02   -0.50697E-02  5820   0.235E-01    0.333E-01
DAV:   4    -0.187486821154E+04    0.24848E-04   -0.49128E-03  6036   0.735E-02    0.250E-01
DAV:   5    -0.187486790192E+04    0.30962E-03   -0.71672E-04  5484   0.256E-02    0.160E-01
DAV:   6    -0.187486783402E+04    0.67900E-04   -0.46010E-04  4536   0.184E-02    0.756E-02
DAV:   7    -0.187486783836E+04   -0.43454E-05   -0.78674E-05  3732   0.876E-03
 maxForce  0.000000000000000E+000  1.000000000000000E-004
 dEPOT   1.04502412905663       1.000000000000000E-004
     62 T=    34. E= -.18729524E+04 F= -.18748678E+04 E0= -.18748678E+04  EK= 0.19155E+01 SP= 0.00E+00 SK= 0.00E+00
 bond charge predicted
 prediction of wavefunctions
       N       E                     dE             d eps       ncg     rms          rms(c)
DAV:   1    -0.187478534446E+04    0.82490E-01   -0.28160E+00  3324   0.215E+00    0.963E-01
DAV:   2    -0.187482276511E+04   -0.37421E-01   -0.40740E-01  3444   0.633E-01    0.437E-01
DAV:   3    -0.187482767741E+04   -0.49123E-02   -0.54799E-02  5868   0.244E-01    0.350E-01
DAV:   4    -0.187482765361E+04    0.23792E-04   -0.52397E-03  5976   0.752E-02    0.261E-01
DAV:   5    -0.187482733066E+04    0.32295E-03   -0.80488E-04  5388   0.275E-02    0.161E-01
DAV:   6    -0.187482728488E+04    0.45783E-04   -0.49285E-04  4536   0.189E-02    0.765E-02
DAV:   7    -0.187482728875E+04   -0.38733E-05   -0.46470E-05  2652   0.830E-03
 maxForce  0.000000000000000E+000  1.000000000000000E-004
 dEPOT   1.08557373979806       1.000000000000000E-004
     63 T=    35. E= -.18728361E+04 F= -.18748273E+04 E0= -.18748273E+04  EK= 0.19912E+01 SP= 0.00E+00 SK= 0.00E+00
 bond charge predicted
 prediction of wavefunctions
       N       E                     dE             d eps       ncg     rms          rms(c)
DAV:   1    -0.187474697323E+04    0.80312E-01   -0.23149E+00  3300   0.206E+00    0.979E-01
DAV:   2    -0.187478358790E+04   -0.36615E-01   -0.40130E-01  3468   0.616E-01    0.436E-01
DAV:   3    -0.187478846905E+04   -0.48811E-02   -0.55255E-02  5868   0.246E-01    0.334E-01
DAV:   4    -0.187478844857E+04    0.20480E-04   -0.52482E-03  6084   0.759E-02    0.253E-01
DAV:   5    -0.187478811062E+04    0.33795E-03   -0.72334E-04  5388   0.256E-02    0.164E-01
DAV:   6    -0.187478802967E+04    0.80949E-04   -0.50199E-04  4476   0.190E-02    0.780E-02
DAV:   7    -0.187478803261E+04   -0.29422E-05   -0.86707E-05  3672   0.900E-03
 maxForce  0.000000000000000E+000  1.000000000000000E-004
 dEPOT   1.12482987762291       1.000000000000000E-004
     64 T=    37. E= -.18727336E+04 F= -.18747880E+04 E0= -.18747880E+04  EK= 0.20544E+01 SP= 0.00E+00 SK= 0.00E+00
 bond charge predicted
 prediction of wavefunctions
       N       E                     dE             d eps       ncg     rms          rms(c)
DAV:   1    -0.187470158597E+04    0.86444E-01   -0.24303E+00  3300   0.210E+00    0.101E+00
DAV:   2    -0.187474028881E+04   -0.38703E-01   -0.42342E-01  3492   0.626E-01    0.469E-01
DAV:   3    -0.187474546012E+04   -0.51713E-02   -0.58207E-02  5856   0.251E-01    0.354E-01
DAV:   4    -0.187474542614E+04    0.33979E-04   -0.55639E-03  6120   0.779E-02    0.274E-01
DAV:   5    -0.187474504590E+04    0.38024E-03   -0.80281E-04  5316   0.268E-02    0.173E-01
DAV:   6    -0.187474496609E+04    0.79804E-04   -0.55161E-04  4536   0.198E-02    0.845E-02
DAV:   7    -0.187474496957E+04   -0.34770E-05   -0.96774E-05  3840   0.943E-03
 maxForce  0.000000000000000E+000  1.000000000000000E-004
 dEPOT   1.16789292071576       1.000000000000000E-004
     65 T=    38. E= -.18726144E+04 F= -.18747450E+04 E0= -.18747450E+04  EK= 0.21305E+01 SP= 0.00E+00 SK= 0.00E+00
 bond charge predicted
 prediction of wavefunctions
       N       E                     dE             d eps       ncg     rms          rms(c)
DAV:   1    -0.187465707283E+04    0.87893E-01   -0.24584E+00  3324   0.212E+00    0.101E+00
DAV:   2    -0.187469752756E+04   -0.40455E-01   -0.44394E-01  3468   0.643E-01    0.477E-01
DAV:   3    -0.187470304465E+04   -0.55171E-02   -0.62658E-02  5820   0.260E-01    0.357E-01
DAV:   4    -0.187470300667E+04    0.37981E-04   -0.59966E-03  6072   0.819E-02    0.276E-01
DAV:   5    -0.187470261964E+04    0.38703E-03   -0.81034E-04  5400   0.270E-02    0.180E-01
DAV:   6    -0.187470250678E+04    0.11286E-03   -0.59117E-04  4500   0.208E-02    0.842E-02
DAV:   7    -0.187470251332E+04   -0.65344E-05   -0.13719E-04  4224   0.107E-02    0.459E-02
DAV:   8    -0.187470251498E+04   -0.16643E-05   -0.97659E-06  1968   0.474E-03
 maxForce  0.000000000000000E+000  1.000000000000000E-004
 dEPOT   1.21034751162028       1.000000000000000E-004
     66 T=    40. E= -.18724760E+04 F= -.18747025E+04 E0= -.18747025E+04  EK= 0.22266E+01 SP= 0.00E+00 SK= 0.00E+00
 bond charge predicted
 prediction of wavefunctions
       N       E                     dE             d eps       ncg     rms          rms(c)
DAV:   1    -0.187461378353E+04    0.88730E-01   -0.27890E+00  3312   0.228E+00    0.102E+00
DAV:   2    -0.187465712402E+04   -0.43340E-01   -0.47389E-01  3432   0.665E-01    0.448E-01
DAV:   3    -0.187466289254E+04   -0.57685E-02   -0.65165E-02  5844   0.267E-01    0.354E-01
DAV:   4    -0.187466287581E+04    0.16722E-04   -0.61423E-03  6108   0.825E-02    0.264E-01
DAV:   5    -0.187466248664E+04    0.38918E-03   -0.81861E-04  5508   0.277E-02    0.172E-01
DAV:   6    -0.187466238605E+04    0.10058E-03   -0.59052E-04  4536   0.210E-02    0.803E-02
DAV:   7    -0.187466239234E+04   -0.62843E-05   -0.12607E-04  4140   0.104E-02    0.440E-02
DAV:   8    -0.187466239402E+04   -0.16808E-05   -0.95483E-06  1932   0.491E-03
 maxForce  0.000000000000000E+000  1.000000000000000E-004
 dEPOT   1.25046847302679       1.000000000000000E-004
     67 T=    41. E= -.18723706E+04 F= -.18746624E+04 E0= -.18746624E+04  EK= 0.22918E+01 SP= 0.00E+00 SK= 0.00E+00
 bond charge predicted
 prediction of wavefunctions
       N       E                     dE             d eps       ncg     rms          rms(c)
DAV:   1    -0.187457046339E+04    0.91929E-01   -0.26879E+00  3336   0.218E+00    0.101E+00
DAV:   2    -0.187461200693E+04   -0.41544E-01   -0.45520E-01  3420   0.651E-01    0.453E-01
DAV:   3    -0.187461748992E+04   -0.54830E-02   -0.62041E-02  5820   0.261E-01    0.347E-01
DAV:   4    -0.187461746405E+04    0.25875E-04   -0.59817E-03  6072   0.810E-02    0.261E-01
DAV:   5    -0.187461709481E+04    0.36924E-03   -0.85547E-04  5448   0.276E-02    0.166E-01
DAV:   6    -0.187461701877E+04    0.76038E-04   -0.51157E-04  4584   0.193E-02    0.823E-02
DAV:   7    -0.187461702035E+04   -0.15754E-05   -0.82991E-05  3768   0.897E-03
 maxForce  0.000000000000000E+000  1.000000000000000E-004
 dEPOT   1.29584214276497       1.000000000000000E-004
     68 T=    42. E= -.18722760E+04 F= -.18746170E+04 E0= -.18746170E+04  EK= 0.23410E+01 SP= 0.00E+00 SK= 0.00E+00
 bond charge predicted
 prediction of wavefunctions
       N       E                     dE             d eps       ncg     rms          rms(c)
DAV:   1    -0.187452213310E+04    0.94886E-01   -0.27395E+00  3312   0.219E+00    0.102E+00
DAV:   2    -0.187456430675E+04   -0.42174E-01   -0.46080E-01  3396   0.661E-01    0.474E-01
DAV:   3    -0.187457001010E+04   -0.57034E-02   -0.64071E-02  5832   0.267E-01    0.362E-01
DAV:   4    -0.187456999749E+04    0.12616E-04   -0.60730E-03  6132   0.795E-02    0.273E-01
DAV:   5    -0.187456962354E+04    0.37394E-03   -0.85175E-04  5412   0.278E-02    0.173E-01
DAV:   6    -0.187456955353E+04    0.70012E-04   -0.52029E-04  4680   0.194E-02    0.860E-02
DAV:   7    -0.187456955655E+04   -0.30207E-05   -0.75689E-05  3648   0.865E-03
 maxForce  0.000000000000000E+000  1.000000000000000E-004
 dEPOT   1.34330594037988       1.000000000000000E-004
     69 T=    42. E= -.18721827E+04 F= -.18745696E+04 E0= -.18745696E+04  EK= 0.23869E+01 SP= 0.00E+00 SK= 0.00E+00
 bond charge predicted
 prediction of wavefunctions
       N       E                     dE             d eps       ncg     rms          rms(c)
DAV:   1    -0.187447668019E+04    0.92873E-01   -0.26849E+00  3324   0.221E+00    0.105E+00
DAV:   2    -0.187452042622E+04   -0.43746E-01   -0.47896E-01  3492   0.669E-01    0.483E-01
DAV:   3    -0.187452621790E+04   -0.57917E-02   -0.65436E-02  5808   0.269E-01    0.363E-01
DAV:   4    -0.187452619879E+04    0.19111E-04   -0.62519E-03  6168   0.822E-02    0.277E-01
DAV:   5    -0.187452578708E+04    0.41171E-03   -0.91007E-04  5388   0.287E-02    0.174E-01
DAV:   6    -0.187452571431E+04    0.72770E-04   -0.56626E-04  4656   0.201E-02    0.871E-02
DAV:   7    -0.187452571809E+04   -0.37827E-05   -0.80820E-05  3828   0.891E-03
 maxForce  0.000000000000000E+000  1.000000000000000E-004
 dEPOT   1.38714439941782       1.000000000000000E-004
     70 T=    43. E= -.18721175E+04 F= -.18745257E+04 E0= -.18745257E+04  EK= 0.24082E+01 SP= 0.00E+00 SK= 0.00E+00
 bond charge predicted
 prediction of wavefunctions
       N       E                     dE             d eps       ncg     rms          rms(c)
DAV:   1    -0.187443260034E+04    0.93114E-01   -0.25560E+00  3312   0.222E+00    0.107E+00
DAV:   2    -0.187447700163E+04   -0.44401E-01   -0.48634E-01  3420   0.662E-01    0.499E-01
DAV:   3    -0.187448293817E+04   -0.59365E-02   -0.67368E-02  5832   0.273E-01    0.368E-01
DAV:   4    -0.187448291710E+04    0.21070E-04   -0.63647E-03  6228   0.834E-02    0.286E-01
DAV:   5    -0.187448249012E+04    0.42697E-03   -0.87114E-04  5316   0.278E-02    0.184E-01
DAV:   6    -0.187448238942E+04    0.10070E-03   -0.60478E-04  4488   0.207E-02    0.910E-02
DAV:   7    -0.187448239136E+04   -0.19369E-05   -0.11321E-04  4128   0.101E-02    0.512E-02
DAV:   8    -0.187448239362E+04   -0.22587E-05   -0.11437E-05  1896   0.514E-03
 maxForce  0.000000000000000E+000  1.000000000000000E-004
 dEPOT   1.43046887407058       1.000000000000000E-004
     71 T=    43. E= -.18720420E+04 F= -.18744824E+04 E0= -.18744824E+04  EK= 0.24404E+01 SP= 0.00E+00 SK= 0.00E+00
 bond charge predicted
 prediction of wavefunctions
       N       E                     dE             d eps       ncg     rms          rms(c)
DAV:   1    -0.187438655141E+04    0.95840E-01   -0.26819E+00  3336   0.224E+00    0.107E+00
DAV:   2    -0.187443159647E+04   -0.45045E-01   -0.49366E-01  3432   0.675E-01    0.480E-01
DAV:   3    -0.187443761318E+04   -0.60167E-02   -0.68483E-02  5868   0.278E-01    0.360E-01
DAV:   4    -0.187443757934E+04    0.33846E-04   -0.65111E-03  6216   0.835E-02    0.272E-01
DAV:   5    -0.187443715280E+04    0.42654E-03   -0.89501E-04  5352   0.282E-02    0.174E-01
DAV:   6    -0.187443706468E+04    0.88116E-04   -0.57132E-04  4620   0.202E-02    0.892E-02
DAV:   7    -0.187443706539E+04   -0.70318E-06   -0.94925E-05  3960   0.928E-03
 maxForce  0.000000000000000E+000  1.000000000000000E-004
 dEPOT   1.47579710458035       1.000000000000000E-004
     72 T=    44. E= -.18719436E+04 F= -.18744371E+04 E0= -.18744371E+04  EK= 0.24935E+01 SP= 0.00E+00 SK= 0.00E+00
 bond charge predicted
 prediction of wavefunctions
       N       E                     dE             d eps       ncg     rms          rms(c)
DAV:   1    -0.187433942987E+04    0.97635E-01   -0.30282E+00  3348   0.238E+00    0.109E+00
DAV:   2    -0.187438682440E+04   -0.47395E-01   -0.51659E-01  3468   0.695E-01    0.505E-01
DAV:   3    -0.187439313390E+04   -0.63095E-02   -0.70776E-02  5880   0.277E-01    0.392E-01
DAV:   4    -0.187439312126E+04    0.12634E-04   -0.66284E-03  6012   0.857E-02    0.302E-01
DAV:   5    -0.187439273242E+04    0.38884E-03   -0.86311E-04  5604   0.290E-02    0.202E-01
DAV:   6    -0.187439259394E+04    0.13849E-03   -0.68939E-04  4476   0.230E-02    0.896E-02
DAV:   7    -0.187439260865E+04   -0.14713E-04   -0.21901E-04  4524   0.129E-02    0.443E-02
DAV:   8    -0.187439260779E+04    0.85816E-06   -0.15341E-05  1908   0.513E-03
 maxForce  0.000000000000000E+000  1.000000000000000E-004
 dEPOT   1.52025470127796       1.000000000000000E-004
     73 T=    46. E= -.18718337E+04 F= -.18743926E+04 E0= -.18743926E+04  EK= 0.25589E+01 SP= 0.00E+00 SK= 0.00E+00
 bond charge predicted
 prediction of wavefunctions
       N       E                     dE             d eps       ncg     rms          rms(c)
DAV:   1    -0.187429256383E+04    0.10004E+00   -0.27327E+00  3348   0.229E+00    0.107E+00
DAV:   2    -0.187433863036E+04   -0.46067E-01   -0.50449E-01  3480   0.677E-01    0.484E-01
DAV:   3    -0.187434477866E+04   -0.61483E-02   -0.69507E-02  5856   0.278E-01    0.367E-01
DAV:   4    -0.187434475864E+04    0.20018E-04   -0.66134E-03  6168   0.846E-02    0.278E-01
DAV:   5    -0.187434434605E+04    0.41259E-03   -0.86087E-04  5484   0.279E-02    0.183E-01
DAV:   6    -0.187434423425E+04    0.11180E-03   -0.60419E-04  4548   0.211E-02    0.894E-02
DAV:   7    -0.187434423622E+04   -0.19658E-05   -0.12655E-04  4128   0.106E-02    0.483E-02
DAV:   8    -0.187434423798E+04   -0.17641E-05   -0.11205E-05  1920   0.505E-03
 maxForce  0.000000000000000E+000  1.000000000000000E-004
 dEPOT   1.56862451091388       1.000000000000000E-004
     74 T=    46. E= -.18717435E+04 F= -.18743442E+04 E0= -.18743442E+04  EK= 0.26008E+01 SP= 0.00E+00 SK= 0.00E+00
 bond charge predicted
 prediction of wavefunctions
       N       E                     dE             d eps       ncg     rms          rms(c)
DAV:   1    -0.187424020841E+04    0.10403E+00   -0.26138E+00  3312   0.230E+00    0.114E+00
DAV:   2    -0.187428803770E+04   -0.47829E-01   -0.52440E-01  3432   0.688E-01    0.528E-01
DAV:   3    -0.187429454806E+04   -0.65104E-02   -0.73969E-02  5868   0.285E-01    0.376E-01
DAV:   4    -0.187429451514E+04    0.32912E-04   -0.69726E-03  6084   0.879E-02    0.299E-01
DAV:   5    -0.187429404631E+04    0.46883E-03   -0.91917E-04  5484   0.292E-02    0.195E-01
DAV:   6    -0.187429389626E+04    0.15005E-03   -0.70328E-04  4572   0.229E-02    0.939E-02
DAV:   7    -0.187429389550E+04    0.76453E-06   -0.17784E-04  4512   0.121E-02    0.505E-02
DAV:   8    -0.187429389617E+04   -0.67474E-06   -0.13725E-05  2088   0.525E-03
 maxForce  0.000000000000000E+000  1.000000000000000E-004
 dEPOT   1.61896632168305       1.000000000000000E-004
     75 T=    48. E= -.18716197E+04 F= -.18742939E+04 E0= -.18742939E+04  EK= 0.26742E+01 SP= 0.00E+00 SK= 0.00E+00
 bond charge predicted
 prediction of wavefunctions
       N       E                     dE             d eps       ncg     rms          rms(c)
DAV:   1    -0.187418763075E+04    0.10626E+00   -0.32749E+00  3312   0.243E+00    0.111E+00
DAV:   2    -0.187423900932E+04   -0.51379E-01   -0.56033E-01  3432   0.730E-01    0.515E-01
DAV:   3    -0.187424601708E+04   -0.70078E-02   -0.78401E-02  5868   0.295E-01    0.388E-01
DAV:   4    -0.187424598772E+04    0.29364E-04   -0.74657E-03  6084   0.895E-02    0.295E-01
DAV:   5    -0.187424555558E+04    0.43214E-03   -0.10157E-03  5496   0.307E-02    0.186E-01
DAV:   6    -0.187424546256E+04    0.93014E-04   -0.64080E-04  4644   0.221E-02    0.907E-02
DAV:   7    -0.187424546757E+04   -0.50061E-05   -0.11186E-04  4236   0.102E-02    0.555E-02
DAV:   8    -0.187424546976E+04   -0.21875E-05   -0.10644E-05  1860   0.523E-03
 maxForce  0.000000000000000E+000  1.000000000000000E-004
 dEPOT   1.66739273608641       1.000000000000000E-004
     76 T=    48. E= -.18715473E+04 F= -.18742455E+04 E0= -.18742455E+04  EK= 0.26982E+01 SP= 0.00E+00 SK= 0.00E+00
 bond charge predicted
 prediction of wavefunctions
       N       E                     dE             d eps       ncg     rms          rms(c)
DAV:   1    -0.187413987232E+04    0.10560E+00   -0.29407E+00  3312   0.239E+00    0.108E+00
DAV:   2    -0.187418894092E+04   -0.49069E-01   -0.53425E-01  3480   0.713E-01    0.487E-01
DAV:   3    -0.187419547124E+04   -0.65303E-02   -0.73391E-02  5940   0.285E-01    0.367E-01
[...]
 maxForce  0.000000000000000E+000  1.000000000000000E-004
 dEPOT   26.9300822532862       1.000000000000000E-004
    484 T=   507. E= -.18204579E+04 F= -.18489828E+04 E0= -.18489828E+04  EK= 0.28525E+02 SP= 0.00E+00 SK= 0.00E+00
 bond charge predicted
 prediction of wavefunctions
       N       E                     dE             d eps       ncg     rms          rms(c)
DAV:   1    -0.184828856393E+04    0.69422E+00   -0.22126E+01  3396   0.736E+00    0.356E+00
DAV:   2    -0.184874149877E+04   -0.45293E+00   -0.49116E+00  3516   0.219E+00    0.151E+00
DAV:   3    -0.184880896987E+04   -0.67471E-01   -0.72235E-01  6120   0.855E-01    0.120E+00
DAV:   4    -0.184880918452E+04   -0.21466E-03   -0.64730E-02  5760   0.265E-01    0.869E-01
DAV:   5    -0.184880713875E+04    0.20458E-02   -0.66288E-03  5796   0.804E-02    0.606E-01
DAV:   6    -0.184880597172E+04    0.11670E-02   -0.39284E-03  4656   0.569E-02    0.258E-01
DAV:   7    -0.184880609607E+04   -0.12435E-03   -0.25867E-03  5004   0.400E-02    0.109E-01
DAV:   8    -0.184880609154E+04    0.45377E-05   -0.38915E-04  5388   0.161E-02    0.109E-01
DAV:   9    -0.184880610694E+04   -0.15407E-04   -0.28759E-05  2232   0.699E-03    0.891E-02
DAV:  10    -0.184880609432E+04    0.12624E-04   -0.49323E-05  2940   0.709E-03    0.528E-02
DAV:  11    -0.184880605276E+04    0.41557E-04   -0.56634E-05  3312   0.752E-03    0.345E-02
DAV:  12    -0.184880605189E+04    0.87253E-06   -0.13934E-05  1872   0.434E-03
 maxForce  0.000000000000000E+000  1.000000000000000E-004
 dEPOT   27.1068106020577       1.000000000000000E-004
    485 T=   510. E= -.18201233E+04 F= -.18488061E+04 E0= -.18488061E+04  EK= 0.28683E+02 SP= 0.00E+00 SK= 0.00E+00
 bond charge predicted
 prediction of wavefunctions
       N       E                     dE             d eps       ncg     rms          rms(c)
DAV:   1    -0.184810387184E+04    0.70218E+00   -0.21216E+01  3360   0.733E+00    0.355E+00
DAV:   2    -0.184856132684E+04   -0.45746E+00   -0.49737E+00  3492   0.220E+00    0.156E+00
DAV:   3    -0.184862772774E+04   -0.66401E-01   -0.71872E-01  6096   0.870E-01    0.118E+00
DAV:   4    -0.184862758912E+04    0.13862E-03   -0.66806E-02  5820   0.266E-01    0.868E-01
DAV:   5    -0.184862514926E+04    0.24399E-02   -0.70535E-03  5736   0.835E-02    0.585E-01
DAV:   6    -0.184862414989E+04    0.99938E-03   -0.40327E-03  4704   0.578E-02    0.265E-01
DAV:   7    -0.184862424327E+04   -0.93388E-04   -0.20342E-03  5088   0.377E-02    0.107E-01
DAV:   8    -0.184862424156E+04    0.17145E-05   -0.36928E-04  5220   0.160E-02    0.107E-01
DAV:   9    -0.184862424444E+04   -0.28846E-05   -0.21375E-05  2100   0.638E-03
 maxForce  0.000000000000000E+000  1.000000000000000E-004
 dEPOT   27.2886180475946       1.000000000000000E-004
    486 T=   513. E= -.18197698E+04 F= -.18486242E+04 E0= -.18486242E+04  EK= 0.28854E+02 SP= 0.00E+00 SK= 0.00E+00
 bond charge predicted
 prediction of wavefunctions
       N       E                     dE             d eps       ncg     rms          rms(c)
DAV:   1    -0.184788706602E+04    0.73718E+00   -0.21368E+01  3324   0.753E+00    0.342E+00
DAV:   2    -0.184834432492E+04   -0.45726E+00   -0.49792E+00  3456   0.217E+00    0.149E+00
DAV:   3    -0.184840968982E+04   -0.65365E-01   -0.71308E-01  6084   0.868E-01    0.115E+00
DAV:   4    -0.184840961591E+04    0.73912E-04   -0.66506E-02  5796   0.266E-01    0.834E-01
DAV:   5    -0.184840724176E+04    0.23741E-02   -0.69517E-03  5784   0.816E-02    0.577E-01
DAV:   6    -0.184840610602E+04    0.11357E-02   -0.38670E-03  4680   0.554E-02    0.269E-01
DAV:   7    -0.184840618129E+04   -0.75275E-04   -0.24653E-03  5064   0.394E-02    0.101E-01
DAV:   8    -0.184840617295E+04    0.83419E-05   -0.40613E-04  5316   0.170E-02    0.106E-01
DAV:   9    -0.184840618021E+04   -0.72572E-05   -0.25906E-05  2172   0.703E-03
 maxForce  0.000000000000000E+000  1.000000000000000E-004
 dEPOT   27.5066822854462       1.000000000000000E-004
    487 T=   514. E= -.18194889E+04 F= -.18484062E+04 E0= -.18484062E+04  EK= 0.28917E+02 SP= 0.00E+00 SK= 0.00E+00
 bond charge predicted
 prediction of wavefunctions
       N       E                     dE             d eps       ncg     rms          rms(c)
DAV:   1    -0.184765702282E+04    0.74915E+00   -0.22184E+01  3384   0.762E+00    0.348E+00
DAV:   2    -0.184811824951E+04   -0.46123E+00   -0.49988E+00  3456   0.223E+00    0.149E+00
DAV:   3    -0.184818336950E+04   -0.65120E-01   -0.70284E-01  6108   0.878E-01    0.117E+00
DAV:   4    -0.184818345159E+04   -0.82087E-04   -0.65409E-02  5772   0.260E-01    0.847E-01
DAV:   5    -0.184818130722E+04    0.21444E-02   -0.68067E-03  5736   0.819E-02    0.581E-01
DAV:   6    -0.184818029761E+04    0.10096E-02   -0.38485E-03  4692   0.572E-02    0.255E-01
DAV:   7    -0.184818040654E+04   -0.10893E-03   -0.21200E-03  5052   0.383E-02    0.106E-01
DAV:   8    -0.184818040510E+04    0.14351E-05   -0.35810E-04  5340   0.159E-02    0.106E-01
DAV:   9    -0.184818041372E+04   -0.86158E-05   -0.22767E-05  2136   0.647E-03
 maxForce  0.000000000000000E+000  1.000000000000000E-004
 dEPOT   27.7324487760382       1.000000000000000E-004
    488 T=   511. E= -.18194510E+04 F= -.18481804E+04 E0= -.18481804E+04  EK= 0.28729E+02 SP= 0.00E+00 SK= 0.00E+00
 bond charge predicted
 prediction of wavefunctions
       N       E                     dE             d eps       ncg     rms          rms(c)
DAV:   1    -0.184748325400E+04    0.69715E+00   -0.20434E+01  3372   0.742E+00    0.342E+00
DAV:   2    -0.184792647861E+04   -0.44322E+00   -0.48306E+00  3504   0.215E+00    0.149E+00
DAV:   3    -0.184798913081E+04   -0.62652E-01   -0.68276E-01  6096   0.860E-01    0.115E+00
DAV:   4    -0.184798913782E+04   -0.70152E-05   -0.64695E-02  5820   0.257E-01    0.849E-01
DAV:   5    -0.184798667327E+04    0.24646E-02   -0.67188E-03  5784   0.810E-02    0.592E-01
DAV:   6    -0.184798542496E+04    0.12483E-02   -0.40911E-03  4608   0.577E-02    0.274E-01
DAV:   7    -0.184798546541E+04   -0.40446E-04   -0.25323E-03  4992   0.414E-02    0.101E-01
DAV:   8    -0.184798546951E+04   -0.41072E-05   -0.44282E-04  5304   0.180E-02    0.108E-01
DAV:   9    -0.184798547703E+04   -0.75130E-05   -0.27277E-05  2208   0.693E-03
 maxForce  0.000000000000000E+000  1.000000000000000E-004
 dEPOT   27.9273854655223       1.000000000000000E-004
    489 T=   504. E= -.18196652E+04 F= -.18479855E+04 E0= -.18479855E+04  EK= 0.28320E+02 SP= 0.00E+00 SK= 0.00E+00
 bond charge predicted
 prediction of wavefunctions
       N       E                     dE             d eps       ncg     rms          rms(c)
DAV:   1    -0.184728652667E+04    0.69894E+00   -0.21235E+01  3324   0.750E+00    0.335E+00
DAV:   2    -0.184772996157E+04   -0.44343E+00   -0.48483E+00  3504   0.217E+00    0.146E+00
DAV:   3    -0.184779309228E+04   -0.63131E-01   -0.69176E-01  6096   0.859E-01    0.116E+00
DAV:   4    -0.184779288341E+04    0.20886E-03   -0.66285E-02  5760   0.264E-01    0.835E-01
DAV:   5    -0.184779042491E+04    0.24585E-02   -0.68142E-03  5772   0.814E-02    0.590E-01
DAV:   6    -0.184778905920E+04    0.13657E-02   -0.43751E-03  4668   0.588E-02    0.267E-01
DAV:   7    -0.184778914405E+04   -0.84853E-04   -0.27913E-03  5040   0.423E-02    0.104E-01
DAV:   8    -0.184778914265E+04    0.13992E-05   -0.40085E-04  5400   0.174E-02    0.112E-01
DAV:   9    -0.184778915886E+04   -0.16206E-04   -0.32215E-05  2256   0.683E-03    0.903E-02
DAV:  10    -0.184778915056E+04    0.82976E-05   -0.62797E-05  3372   0.750E-03
 maxForce  0.000000000000000E+000  1.000000000000000E-004
 dEPOT   28.1237119302571       1.000000000000000E-004
    490 T=   502. E= -.18195441E+04 F= -.18477892E+04 E0= -.18477892E+04  EK= 0.28245E+02 SP= 0.00E+00 SK= 0.00E+00
 bond charge predicted
 prediction of wavefunctions
       N       E                     dE             d eps       ncg     rms          rms(c)
DAV:   1    -0.184713669420E+04    0.65246E+00   -0.22209E+01  3396   0.757E+00    0.341E+00
DAV:   2    -0.184757855954E+04   -0.44187E+00   -0.47993E+00  3492   0.217E+00    0.145E+00
DAV:   3    -0.184763973842E+04   -0.61179E-01   -0.66701E-01  6132   0.847E-01    0.117E+00
DAV:   4    -0.184763965182E+04    0.86598E-04   -0.62868E-02  5808   0.252E-01    0.847E-01
DAV:   5    -0.184763719804E+04    0.24538E-02   -0.65190E-03  5844   0.797E-02    0.597E-01
DAV:   6    -0.184763599045E+04    0.12076E-02   -0.40174E-03  4608   0.570E-02    0.278E-01
DAV:   7    -0.184763602836E+04   -0.37918E-04   -0.23781E-03  5112   0.406E-02    0.968E-02
DAV:   8    -0.184763603070E+04   -0.23352E-05   -0.39018E-04  5220   0.172E-02    0.103E-01
DAV:   9    -0.184763603720E+04   -0.65032E-05   -0.24502E-05  2208   0.652E-03
 maxForce  0.000000000000000E+000  1.000000000000000E-004
 dEPOT   28.2768252897843       1.000000000000000E-004
    491 T=   508. E= -.18190924E+04 F= -.18476360E+04 E0= -.18476360E+04  EK= 0.28544E+02 SP= 0.00E+00 SK= 0.00E+00
 bond charge predicted
 prediction of wavefunctions
       N       E                     dE             d eps       ncg     rms          rms(c)
DAV:   1    -0.184705232087E+04    0.58371E+00   -0.22934E+01  3336   0.752E+00    0.340E+00
DAV:   2    -0.184749390339E+04   -0.44158E+00   -0.47891E+00  3492   0.218E+00    0.146E+00
DAV:   3    -0.184755455142E+04   -0.60648E-01   -0.66293E-01  6096   0.858E-01    0.116E+00
DAV:   4    -0.184755434886E+04    0.20257E-03   -0.63909E-02  5940   0.251E-01    0.834E-01
DAV:   5    -0.184755187611E+04    0.24727E-02   -0.67866E-03  5808   0.792E-02    0.562E-01
DAV:   6    -0.184755102410E+04    0.85202E-03   -0.38529E-03  4800   0.555E-02    0.264E-01
DAV:   7    -0.184755108358E+04   -0.59484E-04   -0.15878E-03  5028   0.350E-02    0.995E-02
DAV:   8    -0.184755109126E+04   -0.76793E-05   -0.34368E-04  5196   0.162E-02    0.996E-02
DAV:   9    -0.184755109111E+04    0.14697E-06   -0.18919E-05  2100   0.583E-03
 maxForce  0.000000000000000E+000  1.000000000000000E-004
 dEPOT   28.3617713799360       1.000000000000000E-004
    492 T=   507. E= -.18190475E+04 F= -.18475511E+04 E0= -.18475511E+04  EK= 0.28504E+02 SP= 0.00E+00 SK= 0.00E+00
 bond charge predicted
 prediction of wavefunctions
       N       E                     dE             d eps       ncg     rms          rms(c)
DAV:   1    -0.184698972367E+04    0.56137E+00   -0.21810E+01  3384   0.747E+00    0.349E+00
DAV:   2    -0.184742478216E+04   -0.43506E+00   -0.47151E+00  3492   0.214E+00    0.149E+00
DAV:   3    -0.184748486733E+04   -0.60085E-01   -0.65407E-01  6108   0.854E-01    0.117E+00
DAV:   4    -0.184748487513E+04   -0.77994E-05   -0.62095E-02  5916   0.245E-01    0.863E-01
DAV:   5    -0.184748267482E+04    0.22003E-02   -0.61706E-03  5844   0.767E-02    0.617E-01
DAV:   6    -0.184748140241E+04    0.12724E-02   -0.40721E-03  4716   0.576E-02    0.273E-01
DAV:   7    -0.184748147146E+04   -0.69050E-04   -0.25616E-03  5052   0.406E-02    0.102E-01
DAV:   8    -0.184748147729E+04   -0.58283E-05   -0.37353E-04  5460   0.164E-02    0.108E-01
DAV:   9    -0.184748148981E+04   -0.12526E-04   -0.29611E-05  2304   0.671E-03    0.899E-02
DAV:  10    -0.184748148546E+04    0.43512E-05   -0.63892E-05  3360   0.717E-03
 maxForce  0.000000000000000E+000  1.000000000000000E-004
 dEPOT   28.4313770306946       1.000000000000000E-004
    493 T=   503. E= -.18192251E+04 F= -.18474815E+04 E0= -.18474815E+04  EK= 0.28256E+02 SP= 0.00E+00 SK= 0.00E+00
 bond charge predicted
 prediction of wavefunctions
       N       E                     dE             d eps       ncg     rms          rms(c)
DAV:   1    -0.184692885415E+04    0.55264E+00   -0.21726E+01  3372   0.732E+00    0.341E+00
DAV:   2    -0.184736805155E+04   -0.43920E+00   -0.47511E+00  3528   0.220E+00    0.147E+00
DAV:   3    -0.184742749507E+04   -0.59444E-01   -0.64802E-01  6108   0.850E-01    0.116E+00
DAV:   4    -0.184742753074E+04   -0.35670E-04   -0.61829E-02  5892   0.246E-01    0.842E-01
DAV:   5    -0.184742522257E+04    0.23082E-02   -0.64486E-03  5820   0.785E-02    0.583E-01
DAV:   6    -0.184742425761E+04    0.96497E-03   -0.37512E-03  4668   0.555E-02    0.269E-01
DAV:   7    -0.184742431875E+04   -0.61147E-04   -0.19128E-03  5016   0.369E-02    0.955E-02
DAV:   8    -0.184742432416E+04   -0.54049E-05   -0.33199E-04  5340   0.162E-02    0.100E-01
DAV:   9    -0.184742432710E+04   -0.29478E-05   -0.19222E-05  2076   0.585E-03
 maxForce  0.000000000000000E+000  1.000000000000000E-004
 dEPOT   28.4885353871398       1.000000000000000E-004
    494 T=   505. E= -.18190426E+04 F= -.18474243E+04 E0= -.18474243E+04  EK= 0.28382E+02 SP= 0.00E+00 SK= 0.00E+00
 bond charge predicted
 prediction of wavefunctions
       N       E                     dE             d eps       ncg     rms          rms(c)
DAV:   1    -0.184687891476E+04    0.54541E+00   -0.22303E+01  3348   0.746E+00    0.352E+00
DAV:   2    -0.184733206285E+04   -0.45315E+00   -0.49072E+00  3564   0.220E+00    0.153E+00
DAV:   3    -0.184739369771E+04   -0.61635E-01   -0.67353E-01  6084   0.859E-01    0.118E+00
DAV:   4    -0.184739376790E+04   -0.70187E-04   -0.64017E-02  5868   0.251E-01    0.872E-01
DAV:   5    -0.184739136646E+04    0.24014E-02   -0.67696E-03  5748   0.809E-02    0.602E-01
DAV:   6    -0.184739026019E+04    0.11063E-02   -0.41087E-03  4740   0.585E-02    0.272E-01
DAV:   7    -0.184739033683E+04   -0.76637E-04   -0.22855E-03  5016   0.399E-02    0.100E-01
DAV:   8    -0.184739033906E+04   -0.22321E-05   -0.41495E-04  5208   0.176E-02    0.108E-01
DAV:   9    -0.184739034440E+04   -0.53380E-05   -0.25025E-05  2220   0.661E-03
 maxForce  0.000000000000000E+000  1.000000000000000E-004
 dEPOT   28.5225180925811       1.000000000000000E-004
    495 T=   509. E= -.18187975E+04 F= -.18473903E+04 E0= -.18473903E+04  EK= 0.28593E+02 SP= 0.00E+00 SK= 0.00E+00
 bond charge predicted
 prediction of wavefunctions
       N       E                     dE             d eps       ncg     rms          rms(c)
DAV:   1    -0.184686126641E+04    0.52907E+00   -0.19996E+01  3420   0.739E+00    0.334E+00
DAV:   2    -0.184729639761E+04   -0.43513E+00   -0.47335E+00  3564   0.214E+00    0.146E+00
DAV:   3    -0.184735739121E+04   -0.60994E-01   -0.66779E-01  6096   0.847E-01    0.113E+00
DAV:   4    -0.184735746106E+04   -0.69845E-04   -0.63127E-02  5892   0.250E-01    0.828E-01
DAV:   5    -0.184735501003E+04    0.24510E-02   -0.64588E-03  5772   0.782E-02    0.574E-01
DAV:   6    -0.184735386371E+04    0.11463E-02   -0.40598E-03  4704   0.573E-02    0.263E-01
DAV:   7    -0.184735390284E+04   -0.39127E-04   -0.21660E-03  5016   0.388E-02    0.963E-02
DAV:   8    -0.184735391360E+04   -0.10766E-04   -0.38550E-04  5256   0.171E-02    0.105E-01
DAV:   9    -0.184735391758E+04   -0.39740E-05   -0.21206E-05  2100   0.628E-03
 maxForce  0.000000000000000E+000  1.000000000000000E-004
 dEPOT   28.5589449150905       1.000000000000000E-004
    496 T=   508. E= -.18187768E+04 F= -.18473539E+04 E0= -.18473539E+04  EK= 0.28577E+02 SP= 0.00E+00 SK= 0.00E+00
 bond charge predicted
 prediction of wavefunctions
       N       E                     dE             d eps       ncg     rms          rms(c)
DAV:   1    -0.184681587632E+04    0.53804E+00   -0.22283E+01  3348   0.766E+00    0.345E+00
DAV:   2    -0.184727815759E+04   -0.46228E+00   -0.50145E+00  3516   0.224E+00    0.148E+00
DAV:   3    -0.184734241711E+04   -0.64260E-01   -0.69787E-01  6120   0.876E-01    0.116E+00
DAV:   4    -0.184734258758E+04   -0.17047E-03   -0.66106E-02  5904   0.259E-01    0.839E-01
DAV:   5    -0.184734019676E+04    0.23908E-02   -0.69938E-03  5736   0.820E-02    0.566E-01
DAV:   6    -0.184733928880E+04    0.90795E-03   -0.38398E-03  4788   0.568E-02    0.258E-01
DAV:   7    -0.184733935890E+04   -0.70098E-04   -0.17897E-03  5112   0.365E-02    0.993E-02
DAV:   8    -0.184733935887E+04    0.29162E-07   -0.36463E-04  5268   0.166E-02    0.101E-01
DAV:   9    -0.184733935954E+04   -0.66773E-06   -0.21425E-05  2100   0.622E-03
 maxForce  0.000000000000000E+000  1.000000000000000E-004
 dEPOT   28.5735029525715       1.000000000000000E-004
    497 T=   512. E= -.18185294E+04 F= -.18473394E+04 E0= -.18473394E+04  EK= 0.28810E+02 SP= 0.00E+00 SK= 0.00E+00
 bond charge predicted
 prediction of wavefunctions
       N       E                     dE             d eps       ncg     rms          rms(c)
DAV:   1    -0.184676409937E+04    0.57526E+00   -0.21872E+01  3432   0.759E+00    0.337E+00
DAV:   2    -0.184721798670E+04   -0.45389E+00   -0.49271E+00  3492   0.219E+00    0.146E+00
DAV:   3    -0.184728221179E+04   -0.64225E-01   -0.69905E-01  6036   0.868E-01    0.115E+00
DAV:   4    -0.184728245212E+04   -0.24033E-03   -0.66387E-02  5952   0.259E-01    0.841E-01
DAV:   5    -0.184727997748E+04    0.24746E-02   -0.66791E-03  5772   0.793E-02    0.588E-01
DAV:   6    -0.184727871476E+04    0.12627E-02   -0.42501E-03  4692   0.592E-02    0.265E-01
DAV:   7    -0.184727876393E+04   -0.49169E-04   -0.24662E-03  4992   0.408E-02    0.971E-02
DAV:   8    -0.184727877060E+04   -0.66725E-05   -0.42182E-04  5280   0.176E-02    0.106E-01
DAV:   9    -0.184727877637E+04   -0.57618E-05   -0.25961E-05  2232   0.677E-03
 maxForce  0.000000000000000E+000  1.000000000000000E-004
 dEPOT   28.6340861266256       1.000000000000000E-004
    498 T=   518. E= -.18181749E+04 F= -.18472788E+04 E0= -.18472788E+04  EK= 0.29104E+02 SP= 0.00E+00 SK= 0.00E+00
 bond charge predicted
 prediction of wavefunctions
       N       E                     dE             d eps       ncg     rms          rms(c)
DAV:   1    -0.184663794248E+04    0.64083E+00   -0.20750E+01  3444   0.743E+00    0.342E+00
DAV:   2    -0.184709477286E+04   -0.45683E+00   -0.49743E+00  3492   0.222E+00    0.150E+00
DAV:   3    -0.184715794618E+04   -0.63173E-01   -0.68829E-01  6084   0.875E-01    0.114E+00
DAV:   4    -0.184715807799E+04   -0.13181E-03   -0.66528E-02  5916   0.256E-01    0.841E-01
DAV:   5    -0.184715578010E+04    0.22979E-02   -0.65665E-03  5760   0.788E-02    0.583E-01
DAV:   6    -0.184715462278E+04    0.11573E-02   -0.40849E-03  4704   0.572E-02    0.256E-01
DAV:   7    -0.184715470644E+04   -0.83658E-04   -0.22845E-03  5052   0.385E-02    0.100E-01
DAV:   8    -0.184715470621E+04    0.22465E-06   -0.34421E-04  5256   0.160E-02    0.106E-01
DAV:   9    -0.184715471357E+04   -0.73562E-05   -0.20792E-05  2052   0.649E-03
 maxForce  0.000000000000000E+000  1.000000000000000E-004
 dEPOT   28.7581489209153       1.000000000000000E-004
    499 T=   516. E= -.18181196E+04 F= -.18471547E+04 E0= -.18471547E+04  EK= 0.29035E+02 SP= 0.00E+00 SK= 0.00E+00
 bond charge predicted
 prediction of wavefunctions
       N       E                     dE             d eps       ncg     rms          rms(c)
DAV:   1    -0.184644225174E+04    0.71245E+00   -0.21868E+01  3336   0.756E+00    0.335E+00
DAV:   2    -0.184691068924E+04   -0.46844E+00   -0.51172E+00  3432   0.225E+00    0.146E+00
DAV:   3    -0.184697551112E+04   -0.64822E-01   -0.71418E-01  6012   0.884E-01    0.116E+00
DAV:   4    -0.184697558108E+04   -0.69957E-04   -0.68048E-02  5868   0.268E-01    0.845E-01
DAV:   5    -0.184697272991E+04    0.28512E-02   -0.73241E-03  5748   0.843E-02    0.583E-01
DAV:   6    -0.184697135215E+04    0.13778E-02   -0.48681E-03  4584   0.621E-02    0.263E-01
DAV:   7    -0.184697141691E+04   -0.64760E-04   -0.27030E-03  5064   0.422E-02    0.101E-01
DAV:   8    -0.184697141982E+04   -0.29033E-05   -0.43637E-04  5280   0.177E-02    0.108E-01
DAV:   9    -0.184697142749E+04   -0.76775E-05   -0.29387E-05  2328   0.723E-03
 maxForce  0.000000000000000E+000  1.000000000000000E-004
 dEPOT   28.9414349989277       1.000000000000000E-004
    500 T=   521. E= -.18177021E+04 F= -.18469714E+04 E0= -.18469714E+04  EK= 0.29269E+02 SP= 0.00E+00 SK= 0.00E+00
 bond charge predicted
 prediction of wavefunctions
 wavefunctions rotated
