 running on  120 total cores
 distrk:  each k-point on  120 cores,    1 groups
 distr:  one band on   20 cores,    6 groups
 vasp.6.3.2 27Jun22 (build Sep 05 2022 15:05:53) gamma-only                     
  
 POSCAR found type information on POSCAR LiScCl
 POSCAR found :  3 types and     432 ions
 Reading from existing POTCAR
 scaLAPACK will be used
 Reading from existing POTCAR
 -----------------------------------------------------------------------------
|                                                                             |
|               ----> ADVICE to this user running VASP <----                  |
|                                                                             |
|     You enforced a specific xc type in the INCAR file but a different       |
|     type was found in the POTCAR file.                                      |
|     I HOPE YOU KNOW WHAT YOU ARE DOING!                                     |
|                                                                             |
 -----------------------------------------------------------------------------

 LDA part: xc-table for Pade appr. of Perdew
 POSCAR, INCAR and KPOINTS ok, starting setup
 FFT: planning ... GRIDC
 FFT: planning ... GRID_SOFT
 FFT: planning ... GRID
 WAVECAR not read
 WARNING: random wavefunctions but no delay for mixing, default for NELMDL
 prediction of wavefunctions initialized - no I/O
 entering main loop
       N       E                     dE             d eps       ncg     rms          rms(c)
DAV:   1     0.408108458802E+05    0.40811E+05   -0.11958E+06  3204   0.164E+03
DAV:   2     0.601422482871E+04   -0.34797E+05   -0.33844E+05  3840   0.467E+02
DAV:   3    -0.638563394810E+03   -0.66528E+04   -0.60679E+04  4284   0.203E+02
DAV:   4    -0.181257263874E+04   -0.11740E+04   -0.11671E+04  5244   0.961E+01
DAV:   5    -0.192026903229E+04   -0.10770E+03   -0.10735E+03  5832   0.384E+01    0.749E+01
DAV:   6    -0.182352274824E+04    0.96746E+02   -0.53598E+02  5676   0.286E+01    0.393E+01
DAV:   7    -0.182665129332E+04   -0.31285E+01   -0.13082E+02  6036   0.106E+01    0.187E+01
DAV:   8    -0.182812467764E+04   -0.14734E+01   -0.24205E+01  5772   0.555E+00    0.902E+00
DAV:   9    -0.182821847766E+04   -0.93800E-01   -0.31638E+00  5700   0.242E+00    0.402E+00
DAV:  10    -0.182825687346E+04   -0.38396E-01   -0.10065E+00  5664   0.171E+00    0.252E+00
DAV:  11    -0.182823331228E+04    0.23561E-01   -0.31973E-01  5592   0.950E-01    0.695E-01
DAV:  12    -0.182824419982E+04   -0.10888E-01   -0.11905E-01  6312   0.379E-01    0.618E-01
DAV:  13    -0.182824679831E+04   -0.25985E-02   -0.18717E-02  5484   0.189E-01    0.275E-01
DAV:  14    -0.182824822614E+04   -0.14278E-02   -0.71421E-03  5652   0.974E-02    0.133E-01
DAV:  15    -0.182824866363E+04   -0.43750E-03   -0.39433E-03  5292   0.765E-02    0.101E-01
DAV:  16    -0.182824887625E+04   -0.21262E-03   -0.23223E-03  5568   0.416E-02    0.826E-02
DAV:  17    -0.182824887151E+04    0.47424E-05   -0.26006E-04  5124   0.154E-02    0.589E-02
DAV:  18    -0.182824884124E+04    0.30271E-04   -0.66991E-05  3408   0.119E-02    0.258E-02
DAV:  19    -0.182824884031E+04    0.92346E-06   -0.78723E-05  3480   0.899E-03
      1 T=   755. E= -.17857762E+04 F= -.18282488E+04 E0= -.18282488E+04  EK= 0.42473E+02 SP= 0.00E+00 SK= 0.00E+00
 bond charge predicted
       N       E                     dE             d eps       ncg     rms          rms(c)
DAV:   1    -0.182528929928E+04    0.29595E+01   -0.62942E+02  3288   0.255E+01    0.701E+00
DAV:   2    -0.182799828020E+04   -0.27090E+01   -0.29796E+01  4728   0.615E+00    0.315E+00
DAV:   3    -0.182811720147E+04   -0.11892E+00   -0.22955E+00  5868   0.143E+00    0.231E+00
DAV:   4    -0.182812630578E+04   -0.91043E-02   -0.18877E-01  5868   0.450E-01    0.123E+00
DAV:   5    -0.182811354317E+04    0.12763E-01   -0.64304E-02  4788   0.224E-01    0.737E-01
DAV:   6    -0.182811507145E+04   -0.15283E-02   -0.31035E-02  4860   0.142E-01    0.259E-01
DAV:   7    -0.182811542135E+04   -0.34990E-03   -0.83018E-03  5580   0.700E-02    0.154E-01
DAV:   8    -0.182811555054E+04   -0.12919E-03   -0.15289E-03  4656   0.369E-02    0.854E-02
DAV:   9    -0.182811553750E+04    0.13044E-04   -0.37625E-04  5556   0.224E-02    0.402E-02
DAV:  10    -0.182811554872E+04   -0.11226E-04   -0.24812E-04  5700   0.172E-02    0.280E-02
DAV:  11    -0.182811555237E+04   -0.36425E-05   -0.49554E-05  3108   0.757E-03
      2 T=   755. E= -.17856735E+04 F= -.18281156E+04 E0= -.18281156E+04  EK= 0.42442E+02 SP= 0.00E+00 SK= 0.00E+00
 bond charge predicted
 prediction of wavefunctions
       N       E                     dE             d eps       ncg     rms          rms(c)
DAV:   1    -0.182727149682E+04    0.84405E+00   -0.25702E+01  3336   0.842E+00    0.406E+00
DAV:   2    -0.182787741002E+04   -0.60591E+00   -0.64668E+00  3528   0.256E+00    0.171E+00
DAV:   3    -0.182797411565E+04   -0.96706E-01   -0.99339E-01  6156   0.966E-01    0.136E+00
DAV:   4    -0.182797626725E+04   -0.21516E-02   -0.84806E-02  5664   0.298E-01    0.943E-01
DAV:   5    -0.182797530252E+04    0.96473E-03   -0.81022E-03  5832   0.908E-02    0.672E-01
DAV:   6    -0.182797462593E+04    0.67659E-03   -0.32142E-03  4764   0.535E-02    0.277E-01
DAV:   7    -0.182797488396E+04   -0.25803E-03   -0.25188E-03  4872   0.387E-02    0.127E-01
DAV:   8    -0.182797488709E+04   -0.31231E-05   -0.35188E-04  5580   0.160E-02    0.112E-01
DAV:   9    -0.182797490601E+04   -0.18919E-04   -0.43040E-05  2952   0.702E-03    0.883E-02
DAV:  10    -0.182797485843E+04    0.47572E-04   -0.35248E-05  2760   0.704E-03    0.531E-02
DAV:  11    -0.182797483109E+04    0.27341E-04   -0.90288E-05  3648   0.705E-03    0.278E-02
DAV:  12    -0.182797483165E+04   -0.55099E-06   -0.74591E-06  1800   0.330E-03
      3 T=   758. E= -.17853454E+04 F= -.18279748E+04 E0= -.18279748E+04  EK= 0.42629E+02 SP= 0.00E+00 SK= 0.00E+00
 bond charge predicted
 prediction of wavefunctions
       N       E                     dE             d eps       ncg     rms          rms(c)
DAV:   1    -0.182725193440E+04    0.72290E+00   -0.18079E+01  3552   0.807E+00    0.376E+00
DAV:   2    -0.182778509596E+04   -0.53316E+00   -0.57620E+00  3528   0.236E+00    0.158E+00
DAV:   3    -0.182785817940E+04   -0.73083E-01   -0.77910E-01  6132   0.898E-01    0.124E+00
DAV:   4    -0.182785871502E+04   -0.53562E-03   -0.73989E-02  5832   0.278E-01    0.895E-01
DAV:   5    -0.182785666488E+04    0.20501E-02   -0.73314E-03  5760   0.847E-02    0.636E-01
DAV:   6    -0.182785547439E+04    0.11905E-02   -0.39888E-03  4692   0.571E-02    0.278E-01
DAV:   7    -0.182785561610E+04   -0.14172E-03   -0.27877E-03  5004   0.406E-02    0.112E-01
DAV:   8    -0.182785562901E+04   -0.12911E-04   -0.38220E-04  5580   0.166E-02    0.116E-01
DAV:   9    -0.182785564691E+04   -0.17894E-04   -0.34753E-05  2604   0.685E-03    0.946E-02
DAV:  10    -0.182785561918E+04    0.27727E-04   -0.22213E-05  1980   0.641E-03    0.560E-02
DAV:  11    -0.182785558002E+04    0.39166E-04   -0.96474E-05  4008   0.837E-03    0.318E-02
DAV:  12    -0.182785558108E+04   -0.10681E-05   -0.99885E-06  1896   0.419E-03
      4 T=   759. E= -.17851905E+04 F= -.18278556E+04 E0= -.18278556E+04  EK= 0.42665E+02 SP= 0.00E+00 SK= 0.00E+00
 bond charge predicted
 prediction of wavefunctions
       N       E                     dE             d eps       ncg     rms          rms(c)
DAV:   1    -0.182718430231E+04    0.67128E+00   -0.20939E+01  3492   0.802E+00    0.383E+00
DAV:   2    -0.182773050996E+04   -0.54621E+00   -0.58478E+00  3492   0.245E+00    0.162E+00
DAV:   3    -0.182780093097E+04   -0.70421E-01   -0.75160E-01  6108   0.898E-01    0.129E+00
DAV:   4    -0.182780140678E+04   -0.47582E-03   -0.71551E-02  5892   0.264E-01    0.934E-01
DAV:   5    -0.182779936392E+04    0.20429E-02   -0.69966E-03  5796   0.820E-02    0.674E-01
DAV:   6    -0.182779815526E+04    0.12087E-02   -0.40023E-03  4764   0.577E-02    0.294E-01
DAV:   7    -0.182779826974E+04   -0.11449E-03   -0.26743E-03  4992   0.402E-02    0.111E-01
DAV:   8    -0.182779828753E+04   -0.17782E-04   -0.35756E-04  5508   0.166E-02    0.114E-01
DAV:   9    -0.182779830437E+04   -0.16848E-04   -0.28345E-05  2340   0.678E-03    0.944E-02
DAV:  10    -0.182779829288E+04    0.11495E-04   -0.37212E-05  2580   0.717E-03    0.547E-02
DAV:  11    -0.182779825238E+04    0.40495E-04   -0.68937E-05  3528   0.792E-03    0.350E-02
DAV:  12    -0.182779825359E+04   -0.12037E-05   -0.10948E-05  1860   0.426E-03
      5 T=   760. E= -.17850576E+04 F= -.18277983E+04 E0= -.18277983E+04  EK= 0.42741E+02 SP= 0.00E+00 SK= 0.00E+00
 bond charge predicted
 prediction of wavefunctions
       N       E                     dE             d eps       ncg     rms          rms(c)
DAV:   1    -0.182716730330E+04    0.63095E+00   -0.19985E+01  3504   0.803E+00    0.382E+00
DAV:   2    -0.182770866565E+04   -0.54136E+00   -0.57814E+00  3492   0.241E+00    0.158E+00
DAV:   3    -0.182777798138E+04   -0.69316E-01   -0.73338E-01  6156   0.881E-01    0.128E+00
DAV:   4    -0.182777864122E+04   -0.65985E-03   -0.69041E-02  5808   0.259E-01    0.910E-01
DAV:   5    -0.182777694996E+04    0.16913E-02   -0.68147E-03  5736   0.821E-02    0.654E-01
DAV:   6    -0.182777593487E+04    0.10151E-02   -0.35638E-03  4764   0.548E-02    0.279E-01
DAV:   7    -0.182777607044E+04   -0.13557E-03   -0.23841E-03  4980   0.383E-02    0.112E-01
DAV:   8    -0.182777608436E+04   -0.13914E-04   -0.33959E-04  5568   0.157E-02    0.110E-01
DAV:   9    -0.182777610042E+04   -0.16069E-04   -0.26732E-05  2256   0.653E-03    0.904E-02
DAV:  10    -0.182777608040E+04    0.20028E-04   -0.36647E-05  2604   0.730E-03    0.511E-02
DAV:  11    -0.182777604478E+04    0.35613E-04   -0.66398E-05  3420   0.756E-03    0.333E-02
DAV:  12    -0.182777604590E+04   -0.11134E-05   -0.96694E-06  1800   0.425E-03
      6 T=   760. E= -.17850181E+04 F= -.18277760E+04 E0= -.18277760E+04  EK= 0.42758E+02 SP= 0.00E+00 SK= 0.00E+00
 bond charge predicted
 prediction of wavefunctions
       N       E                     dE             d eps       ncg     rms          rms(c)
DAV:   1    -0.182712370720E+04    0.65234E+00   -0.20109E+01  3444   0.807E+00    0.390E+00
DAV:   2    -0.182767609997E+04   -0.55239E+00   -0.58979E+00  3564   0.244E+00    0.163E+00
DAV:   3    -0.182775061429E+04   -0.74514E-01   -0.78481E-01  6096   0.893E-01    0.129E+00
DAV:   4    -0.182775156235E+04   -0.94807E-03   -0.73186E-02  5784   0.270E-01    0.917E-01
DAV:   5    -0.182774981420E+04    0.17482E-02   -0.72200E-03  5772   0.837E-02    0.643E-01
DAV:   6    -0.182774893680E+04    0.87739E-03   -0.33016E-03  4812   0.528E-02    0.288E-01
DAV:   7    -0.182774906619E+04   -0.12939E-03   -0.22511E-03  5004   0.376E-02    0.108E-01
DAV:   8    -0.182774907178E+04   -0.55886E-05   -0.38886E-04  5532   0.167E-02    0.108E-01
DAV:   9    -0.182774908108E+04   -0.92964E-05   -0.23925E-05  2184   0.665E-03
      7 T=   756. E= -.17852298E+04 F= -.18277491E+04 E0= -.18277491E+04  EK= 0.42519E+02 SP= 0.00E+00 SK= 0.00E+00
 bond charge predicted
 prediction of wavefunctions
       N       E                     dE             d eps       ncg     rms          rms(c)
DAV:   1    -0.182707314067E+04    0.67593E+00   -0.20508E+01  3468   0.807E+00    0.399E+00
DAV:   2    -0.182764260397E+04   -0.56946E+00   -0.60786E+00  3552   0.250E+00    0.165E+00
DAV:   3    -0.182772079277E+04   -0.78189E-01   -0.82175E-01  6156   0.891E-01    0.131E+00
DAV:   4    -0.182772177881E+04   -0.98604E-03   -0.76324E-02  5748   0.281E-01    0.923E-01
DAV:   5    -0.182772026417E+04    0.15146E-02   -0.74667E-03  5760   0.848E-02    0.654E-01
DAV:   6    -0.182771937759E+04    0.88657E-03   -0.32627E-03  4752   0.549E-02    0.279E-01
DAV:   7    -0.182771954528E+04   -0.16769E-03   -0.24357E-03  4872   0.393E-02    0.117E-01
DAV:   8    -0.182771954593E+04   -0.65024E-06   -0.40173E-04  5520   0.169E-02    0.113E-01
DAV:   9    -0.182771956709E+04   -0.21159E-04   -0.48403E-05  3108   0.725E-03    0.904E-02
DAV:  10    -0.182771953349E+04    0.33603E-04   -0.19048E-05  2028   0.554E-03    0.602E-02
DAV:  11    -0.182771949458E+04    0.38912E-04   -0.10619E-04  4200   0.834E-03    0.311E-02
DAV:  12    -0.182771949614E+04   -0.15602E-05   -0.12195E-05  1884   0.399E-03
      8 T=   750. E= -.17855317E+04 F= -.18277195E+04 E0= -.18277195E+04  EK= 0.42188E+02 SP= 0.00E+00 SK= 0.00E+00
 bond charge predicted
 prediction of wavefunctions
       N       E                     dE             d eps       ncg     rms          rms(c)
DAV:   1    -0.182705588994E+04    0.66360E+00   -0.20200E+01  3432   0.803E+00    0.366E+00
DAV:   2    -0.182761096395E+04   -0.55507E+00   -0.59166E+00  3492   0.247E+00    0.152E+00
DAV:   3    -0.182768670590E+04   -0.75742E-01   -0.80075E-01  6156   0.887E-01    0.125E+00
DAV:   4    -0.182768789787E+04   -0.11920E-02   -0.72246E-02  5796   0.276E-01    0.875E-01
DAV:   5    -0.182768615547E+04    0.17424E-02   -0.69684E-03  5760   0.833E-02    0.624E-01
DAV:   6    -0.182768517671E+04    0.97875E-03   -0.34827E-03  4788   0.556E-02    0.274E-01
DAV:   7    -0.182768530357E+04   -0.12686E-03   -0.24494E-03  5004   0.396E-02    0.106E-01
DAV:   8    -0.182768531349E+04   -0.99157E-05   -0.38727E-04  5628   0.166E-02    0.109E-01
DAV:   9    -0.182768532751E+04   -0.14024E-04   -0.30713E-05  2412   0.676E-03    0.902E-02
DAV:  10    -0.182768531883E+04    0.86792E-05   -0.41566E-05  2844   0.691E-03
      9 T=   755. E= -.17852207E+04 F= -.18276853E+04 E0= -.18276853E+04  EK= 0.42465E+02 SP= 0.00E+00 SK= 0.00E+00
 bond charge predicted
 prediction of wavefunctions
       N       E                     dE             d eps       ncg     rms          rms(c)
DAV:   1    -0.182692133043E+04    0.76400E+00   -0.18000E+01  3432   0.801E+00    0.380E+00
DAV:   2    -0.182747228726E+04   -0.55096E+00   -0.59017E+00  3504   0.245E+00    0.159E+00
DAV:   3    -0.182755206208E+04   -0.79775E-01   -0.83586E-01  6168   0.887E-01    0.127E+00
DAV:   4    -0.182755311805E+04   -0.10560E-02   -0.75883E-02  5760   0.287E-01    0.900E-01
DAV:   5    -0.182755153439E+04    0.15837E-02   -0.72181E-03  5712   0.838E-02    0.649E-01
DAV:   6    -0.182755048320E+04    0.10512E-02   -0.34211E-03  4728   0.541E-02    0.278E-01
DAV:   7    -0.182755063886E+04   -0.15566E-03   -0.25728E-03  4860   0.393E-02    0.119E-01
DAV:   8    -0.182755065057E+04   -0.11709E-04   -0.36886E-04  5676   0.163E-02    0.114E-01
DAV:   9    -0.182755067486E+04   -0.24299E-04   -0.47384E-05  3000   0.716E-03    0.889E-02
DAV:  10    -0.182755063090E+04    0.43961E-04   -0.25210E-05  2160   0.613E-03    0.575E-02
DAV:  11    -0.182755059665E+04    0.34258E-04   -0.10454E-04  4152   0.788E-03    0.310E-02
DAV:  12    -0.182755059796E+04   -0.13138E-05   -0.89672E-06  1812   0.351E-03
     10 T=   762. E= -.17846883E+04 F= -.18275506E+04 E0= -.18275506E+04  EK= 0.42862E+02 SP= 0.00E+00 SK= 0.00E+00
 bond charge predicted
 prediction of wavefunctions
       N       E                     dE             d eps       ncg     rms          rms(c)
DAV:   1    -0.182669017860E+04    0.86042E+00   -0.21762E+01  3396   0.824E+00    0.402E+00
DAV:   2    -0.182728804191E+04   -0.59786E+00   -0.63560E+00  3408   0.253E+00    0.170E+00
DAV:   3    -0.182737433978E+04   -0.86298E-01   -0.90387E-01  6168   0.929E-01    0.132E+00
DAV:   4    -0.182737571196E+04   -0.13722E-02   -0.80196E-02  5784   0.292E-01    0.930E-01
DAV:   5    -0.182737430464E+04    0.14073E-02   -0.76309E-03  5784   0.854E-02    0.668E-01
DAV:   6    -0.182737344238E+04    0.86225E-03   -0.30396E-03  4800   0.527E-02    0.294E-01
DAV:   7    -0.182737359736E+04   -0.15498E-03   -0.24967E-03  5004   0.390E-02    0.117E-01
DAV:   8    -0.182737360528E+04   -0.79166E-05   -0.38897E-04  5640   0.168E-02    0.112E-01
DAV:   9    -0.182737362335E+04   -0.18074E-04   -0.39248E-05  2724   0.705E-03    0.900E-02
DAV:  10    -0.182737359723E+04    0.26121E-04   -0.18012E-05  1968   0.611E-03    0.566E-02
DAV:  11    -0.182737356115E+04    0.36077E-04   -0.10257E-04  4140   0.817E-03    0.290E-02
DAV:  12    -0.182737356224E+04   -0.10886E-05   -0.10464E-05  1872   0.385E-03
     11 T=   760. E= -.17846282E+04 F= -.18273736E+04 E0= -.18273736E+04  EK= 0.42745E+02 SP= 0.00E+00 SK= 0.00E+00
 bond charge predicted
 prediction of wavefunctions
       N       E                     dE             d eps       ncg     rms          rms(c)
DAV:   1    -0.182653833686E+04    0.83522E+00   -0.20819E+01  3348   0.808E+00    0.373E+00
DAV:   2    -0.182712536069E+04   -0.58702E+00   -0.62582E+00  3552   0.254E+00    0.156E+00
DAV:   3    -0.182720764242E+04   -0.82282E-01   -0.86535E-01  6168   0.909E-01    0.126E+00
DAV:   4    -0.182720908036E+04   -0.14379E-02   -0.77177E-02  5784   0.289E-01    0.881E-01
DAV:   5    -0.182720752003E+04    0.15603E-02   -0.71451E-03  5796   0.835E-02    0.637E-01
DAV:   6    -0.182720650574E+04    0.10143E-02   -0.33165E-03  4764   0.546E-02    0.281E-01
DAV:   7    -0.182720662907E+04   -0.12333E-03   -0.25270E-03  5004   0.395E-02    0.114E-01
DAV:   8    -0.182720664279E+04   -0.13713E-04   -0.37335E-04  5604   0.169E-02    0.109E-01
DAV:   9    -0.182720666355E+04   -0.20768E-04   -0.47339E-05  3012   0.703E-03    0.850E-02
DAV:  10    -0.182720663170E+04    0.31853E-04   -0.17129E-05  1944   0.548E-03    0.569E-02
DAV:  11    -0.182720659930E+04    0.32404E-04   -0.96384E-05  4128   0.784E-03    0.298E-02
DAV:  12    -0.182720660082E+04   -0.15289E-05   -0.99570E-06  1860   0.377E-03
     12 T=   757. E= -.17846362E+04 F= -.18272066E+04 E0= -.18272066E+04  EK= 0.42570E+02 SP= 0.00E+00 SK= 0.00E+00
 bond charge predicted
 prediction of wavefunctions
       N       E                     dE             d eps       ncg     rms          rms(c)
DAV:   1    -0.182636346465E+04    0.84313E+00   -0.19251E+01  3324   0.804E+00    0.373E+00
DAV:   2    -0.182693178466E+04   -0.56832E+00   -0.60732E+00  3516   0.245E+00    0.158E+00
DAV:   3    -0.182701106046E+04   -0.79276E-01   -0.83581E-01  6144   0.907E-01    0.124E+00
DAV:   4    -0.182701205938E+04   -0.99892E-03   -0.76509E-02  5856   0.283E-01    0.882E-01
DAV:   5    -0.182701030705E+04    0.17523E-02   -0.69245E-03  5856   0.806E-02    0.640E-01
DAV:   6    -0.182700912802E+04    0.11790E-02   -0.34512E-03  4668   0.538E-02    0.287E-01
DAV:   7    -0.182700921098E+04   -0.82967E-04   -0.26797E-03  5016   0.398E-02    0.114E-01
DAV:   8    -0.182700923185E+04   -0.20868E-04   -0.37518E-04  5568   0.165E-02    0.112E-01
DAV:   9    -0.182700925305E+04   -0.21195E-04   -0.48635E-05  3096   0.693E-03    0.872E-02
DAV:  10    -0.182700921849E+04    0.34554E-04   -0.18197E-05  1920   0.547E-03    0.586E-02
DAV:  11    -0.182700918370E+04    0.34792E-04   -0.96600E-05  4116   0.790E-03    0.318E-02
DAV:  12    -0.182700918602E+04   -0.23226E-05   -0.10309E-05  1872   0.372E-03
     13 T=   755. E= -.17845535E+04 F= -.18270092E+04 E0= -.18270092E+04  EK= 0.42456E+02 SP= 0.00E+00 SK= 0.00E+00
 bond charge predicted
 prediction of wavefunctions
       N       E                     dE             d eps       ncg     rms          rms(c)
DAV:   1    -0.182613229113E+04    0.87689E+00   -0.19347E+01  3408   0.797E+00    0.378E+00
DAV:   2    -0.182670170192E+04   -0.56941E+00   -0.60971E+00  3504   0.246E+00    0.161E+00
DAV:   3    -0.182678241550E+04   -0.80714E-01   -0.85574E-01  6144   0.919E-01    0.125E+00
DAV:   4    -0.182678349227E+04   -0.10768E-02   -0.78612E-02  5880   0.288E-01    0.889E-01
DAV:   5    -0.182678170813E+04    0.17841E-02   -0.72723E-03  5796   0.822E-02    0.635E-01
DAV:   6    -0.182678066551E+04    0.10426E-02   -0.33035E-03  4764   0.532E-02    0.292E-01
DAV:   7    -0.182678075796E+04   -0.92448E-04   -0.25771E-03  5100   0.397E-02    0.109E-01
DAV:   8    -0.182678076689E+04   -0.89305E-05   -0.41729E-04  5448   0.175E-02    0.111E-01
DAV:   9    -0.182678077955E+04   -0.12667E-04   -0.32849E-05  2484   0.695E-03    0.927E-02
DAV:  10    -0.182678076696E+04    0.12596E-04   -0.17925E-05  1860   0.625E-03    0.603E-02
DAV:  11    -0.182678073098E+04    0.35977E-04   -0.82417E-05  3972   0.801E-03    0.315E-02
DAV:  12    -0.182678073125E+04   -0.26298E-06   -0.10070E-05  1872   0.410E-03
     14 T=   754. E= -.17843793E+04 F= -.18267807E+04 E0= -.18267807E+04  EK= 0.42401E+02 SP= 0.00E+00 SK= 0.00E+00
 bond charge predicted
 prediction of wavefunctions
       N       E                     dE             d eps       ncg     rms          rms(c)
DAV:   1    -0.182589468755E+04    0.88604E+00   -0.20014E+01  3384   0.812E+00    0.371E+00
DAV:   2    -0.182645997941E+04   -0.56529E+00   -0.60181E+00  3468   0.245E+00    0.156E+00
DAV:   3    -0.182653665710E+04   -0.76678E-01   -0.80922E-01  6120   0.893E-01    0.125E+00
DAV:   4    -0.182653773775E+04   -0.10807E-02   -0.72725E-02  5808   0.277E-01    0.880E-01
DAV:   5    -0.182653605517E+04    0.16826E-02   -0.68597E-03  5796   0.813E-02    0.629E-01
DAV:   6    -0.182653511024E+04    0.94492E-03   -0.31409E-03  4788   0.518E-02    0.287E-01
DAV:   7    -0.182653521262E+04   -0.10237E-03   -0.23669E-03  5028   0.380E-02    0.107E-01
DAV:   8    -0.182653522161E+04   -0.89918E-05   -0.36632E-04  5472   0.164E-02    0.104E-01
DAV:   9    -0.182653523218E+04   -0.10573E-04   -0.24211E-05  2124   0.677E-03    0.884E-02
DAV:  10    -0.182653522341E+04    0.87730E-05   -0.20286E-05  1896   0.675E-03
     15 T=   745. E= -.17846632E+04 F= -.18265352E+04 E0= -.18265352E+04  EK= 0.41872E+02 SP= 0.00E+00 SK= 0.00E+00
 bond charge predicted
 prediction of wavefunctions
       N       E                     dE             d eps       ncg     rms          rms(c)
DAV:   1    -0.182572071340E+04    0.81452E+00   -0.18868E+01  3396   0.796E+00    0.366E+00
DAV:   2    -0.182626174416E+04   -0.54103E+00   -0.57736E+00  3468   0.240E+00    0.155E+00
DAV:   3    -0.182633236236E+04   -0.70618E-01   -0.75028E-01  6120   0.864E-01    0.122E+00
DAV:   4    -0.182633313303E+04   -0.77067E-03   -0.68832E-02  5868   0.267E-01    0.877E-01
DAV:   5    -0.182633131562E+04    0.18174E-02   -0.68523E-03  5808   0.800E-02    0.617E-01
DAV:   6    -0.182633038794E+04    0.92768E-03   -0.31949E-03  4764   0.522E-02    0.283E-01
DAV:   7    -0.182633047378E+04   -0.85847E-04   -0.22650E-03  5004   0.376E-02    0.103E-01
DAV:   8    -0.182633047808E+04   -0.42988E-05   -0.36652E-04  5280   0.164E-02    0.104E-01
DAV:   9    -0.182633048480E+04   -0.67206E-05   -0.26624E-05  2292   0.663E-03
     16 T=   729. E= -.17853357E+04 F= -.18263305E+04 E0= -.18263305E+04  EK= 0.40995E+02 SP= 0.00E+00 SK= 0.00E+00
 bond charge predicted
 prediction of wavefunctions
       N       E                     dE             d eps       ncg     rms          rms(c)
DAV:   1    -0.182557087964E+04    0.75960E+00   -0.19224E+01  3456   0.779E+00    0.372E+00
DAV:   2    -0.182611245264E+04   -0.54157E+00   -0.57786E+00  3492   0.242E+00    0.155E+00
DAV:   3    -0.182618522517E+04   -0.72773E-01   -0.77072E-01  6084   0.879E-01    0.123E+00
DAV:   4    -0.182618606783E+04   -0.84266E-03   -0.71549E-02  5844   0.272E-01    0.861E-01
DAV:   5    -0.182618432204E+04    0.17458E-02   -0.71781E-03  5892   0.827E-02    0.585E-01
DAV:   6    -0.182618362042E+04    0.70162E-03   -0.30387E-03  4932   0.516E-02    0.263E-01
DAV:   7    -0.182618373787E+04   -0.11745E-03   -0.17937E-03  5136   0.347E-02    0.102E-01
DAV:   8    -0.182618373821E+04   -0.34436E-06   -0.34268E-04  5388   0.162E-02    0.102E-01
DAV:   9    -0.182618373790E+04    0.31077E-06   -0.18517E-05  2040   0.601E-03
     17 T=   720. E= -.17857089E+04 F= -.18261837E+04 E0= -.18261837E+04  EK= 0.40475E+02 SP= 0.00E+00 SK= 0.00E+00
 bond charge predicted
 prediction of wavefunctions
       N       E                     dE             d eps       ncg     rms          rms(c)
DAV:   1    -0.182545245566E+04    0.73128E+00   -0.17954E+01  3432   0.771E+00    0.378E+00
DAV:   2    -0.182599069846E+04   -0.53824E+00   -0.57669E+00  3468   0.237E+00    0.159E+00
DAV:   3    -0.182606571632E+04   -0.75018E-01   -0.79354E-01  6084   0.877E-01    0.124E+00
DAV:   4    -0.182606637533E+04   -0.65901E-03   -0.74694E-02  5868   0.280E-01    0.899E-01
DAV:   5    -0.182606445221E+04    0.19231E-02   -0.74178E-03  5724   0.827E-02    0.633E-01
DAV:   6    -0.182606337910E+04    0.10731E-02   -0.36275E-03  4740   0.563E-02    0.275E-01
DAV:   7    -0.182606351882E+04   -0.13973E-03   -0.26225E-03  4872   0.403E-02    0.113E-01
DAV:   8    -0.182606352407E+04   -0.52483E-05   -0.39526E-04  5556   0.175E-02    0.114E-01
DAV:   9    -0.182606353648E+04   -0.12404E-04   -0.26499E-05  2268   0.641E-03    0.970E-02
DAV:  10    -0.182606352429E+04    0.12190E-04   -0.38102E-05  2688   0.692E-03    0.566E-02
DAV:  11    -0.182606348090E+04    0.43387E-04   -0.68886E-05  3408   0.773E-03    0.341E-02
DAV:  12    -0.182606348060E+04    0.30335E-06   -0.11999E-05  1860   0.436E-03
     18 T=   716. E= -.17858157E+04 F= -.18260635E+04 E0= -.18260635E+04  EK= 0.40248E+02 SP= 0.00E+00 SK= 0.00E+00
 bond charge predicted
 prediction of wavefunctions
       N       E                     dE             d eps       ncg     rms          rms(c)
DAV:   1    -0.182536420730E+04    0.69927E+00   -0.17249E+01  3384   0.776E+00    0.368E+00
DAV:   2    -0.182589916784E+04   -0.53496E+00   -0.57387E+00  3456   0.233E+00    0.158E+00
DAV:   3    -0.182597366718E+04   -0.74499E-01   -0.79249E-01  6120   0.883E-01    0.121E+00
DAV:   4    -0.182597431716E+04   -0.64998E-03   -0.74589E-02  5868   0.275E-01    0.877E-01
DAV:   5    -0.182597230545E+04    0.20117E-02   -0.72728E-03  5760   0.821E-02    0.616E-01
DAV:   6    -0.182597124688E+04    0.10586E-02   -0.36418E-03  4716   0.544E-02    0.276E-01
DAV:   7    -0.182597135538E+04   -0.10849E-03   -0.24598E-03  5004   0.390E-02    0.109E-01
DAV:   8    -0.182597136466E+04   -0.92881E-05   -0.37179E-04  5460   0.167E-02    0.111E-01
DAV:   9    -0.182597137316E+04   -0.84988E-05   -0.22591E-05  2112   0.631E-03
     19 T=   711. E= -.17859897E+04 F= -.18259714E+04 E0= -.18259714E+04  EK= 0.39982E+02 SP= 0.00E+00 SK= 0.00E+00
 bond charge predicted
 prediction of wavefunctions
       N       E                     dE             d eps       ncg     rms          rms(c)
DAV:   1    -0.182531851556E+04    0.65285E+00   -0.19114E+01  3396   0.773E+00    0.361E+00
DAV:   2    -0.182585895093E+04   -0.54044E+00   -0.57829E+00  3480   0.244E+00    0.150E+00
DAV:   3    -0.182593433913E+04   -0.75388E-01   -0.79584E-01  6108   0.875E-01    0.119E+00
DAV:   4    -0.182593531043E+04   -0.97130E-03   -0.72762E-02  5856   0.274E-01    0.826E-01
DAV:   5    -0.182593362107E+04    0.16894E-02   -0.73248E-03  5736   0.829E-02    0.555E-01
DAV:   6    -0.182593301485E+04    0.60622E-03   -0.29432E-03  4992   0.503E-02    0.256E-01
DAV:   7    -0.182593314504E+04   -0.13019E-03   -0.16660E-03  5112   0.338E-02    0.100E-01
DAV:   8    -0.182593314452E+04    0.52009E-06   -0.34963E-04  5448   0.165E-02    0.100E-01
DAV:   9    -0.182593314397E+04    0.55082E-06   -0.21006E-05  2196   0.592E-03
     20 T=   709. E= -.17860720E+04 F= -.18259331E+04 E0= -.18259331E+04  EK= 0.39861E+02 SP= 0.00E+00 SK= 0.00E+00
 bond charge predicted
 prediction of wavefunctions
       N       E                     dE             d eps       ncg     rms          rms(c)
DAV:   1    -0.182529277959E+04    0.64036E+00   -0.17255E+01  3396   0.768E+00    0.364E+00
DAV:   2    -0.182581499140E+04   -0.52221E+00   -0.55976E+00  3468   0.233E+00    0.153E+00
DAV:   3    -0.182588788664E+04   -0.72895E-01   -0.77255E-01  6144   0.868E-01    0.119E+00
DAV:   4    -0.182588858171E+04   -0.69507E-03   -0.72658E-02  5868   0.272E-01    0.852E-01
DAV:   5    -0.182588667246E+04    0.19093E-02   -0.70747E-03  5772   0.817E-02    0.589E-01
DAV:   6    -0.182588575451E+04    0.91795E-03   -0.35172E-03  4848   0.545E-02    0.256E-01
DAV:   7    -0.182588587919E+04   -0.12468E-03   -0.21220E-03  4968   0.375E-02    0.106E-01
DAV:   8    -0.182588588509E+04   -0.59091E-05   -0.35493E-04  5328   0.167E-02    0.109E-01
DAV:   9    -0.182588589159E+04   -0.64966E-05   -0.22186E-05  2028   0.581E-03
     21 T=   712. E= -.17858303E+04 F= -.18258859E+04 E0= -.18258859E+04  EK= 0.40056E+02 SP= 0.00E+00 SK= 0.00E+00
 bond charge predicted
 prediction of wavefunctions
       N       E                     dE             d eps       ncg     rms          rms(c)
DAV:   1    -0.182527379716E+04    0.61209E+00   -0.20107E+01  3384   0.795E+00    0.374E+00
DAV:   2    -0.182582982581E+04   -0.55603E+00   -0.59435E+00  3480   0.244E+00    0.158E+00
DAV:   3    -0.182590684621E+04   -0.77020E-01   -0.81474E-01  6156   0.906E-01    0.124E+00
DAV:   4    -0.182590767511E+04   -0.82890E-03   -0.76117E-02  5856   0.272E-01    0.882E-01
DAV:   5    -0.182590582990E+04    0.18452E-02   -0.75989E-03  5772   0.836E-02    0.608E-01
DAV:   6    -0.182590501744E+04    0.81246E-03   -0.33675E-03  4812   0.537E-02    0.270E-01
DAV:   7    -0.182590516171E+04   -0.14427E-03   -0.20909E-03  4956   0.370E-02    0.105E-01
DAV:   8    -0.182590516088E+04    0.82830E-06   -0.36494E-04  5412   0.173E-02    0.108E-01
DAV:   9    -0.182590516411E+04   -0.32290E-05   -0.21664E-05  2148   0.580E-03
     22 T=   722. E= -.17853212E+04 F= -.18259052E+04 E0= -.18259052E+04  EK= 0.40584E+02 SP= 0.00E+00 SK= 0.00E+00
 bond charge predicted
 prediction of wavefunctions
       N       E                     dE             d eps       ncg     rms          rms(c)
DAV:   1    -0.182530608736E+04    0.59907E+00   -0.17488E+01  3348   0.789E+00    0.366E+00
DAV:   2    -0.182584518990E+04   -0.53910E+00   -0.57734E+00  3468   0.239E+00    0.153E+00
DAV:   3    -0.182592287351E+04   -0.77684E-01   -0.81702E-01  6144   0.888E-01    0.121E+00
DAV:   4    -0.182592395749E+04   -0.10840E-02   -0.75236E-02  5772   0.277E-01    0.851E-01
DAV:   5    -0.182592234818E+04    0.16093E-02   -0.73845E-03  5808   0.861E-02    0.597E-01
DAV:   6    -0.182592142681E+04    0.92137E-03   -0.32087E-03  4860   0.536E-02    0.258E-01
DAV:   7    -0.182592157435E+04   -0.14754E-03   -0.24066E-03  5004   0.391E-02    0.110E-01
DAV:   8    -0.182592157531E+04   -0.95804E-06   -0.35322E-04  5412   0.169E-02    0.111E-01
DAV:   9    -0.182592158790E+04   -0.12592E-04   -0.26213E-05  2124   0.624E-03    0.936E-02
DAV:  10    -0.182592157173E+04    0.16174E-04   -0.27822E-05  2268   0.718E-03    0.566E-02
DAV:  11    -0.182592153457E+04    0.37158E-04   -0.87791E-05  3816   0.819E-03    0.316E-02
DAV:  12    -0.182592153500E+04   -0.43021E-06   -0.10214E-05  1884   0.456E-03
     23 T=   734. E= -.17846505E+04 F= -.18259215E+04 E0= -.18259215E+04  EK= 0.41271E+02 SP= 0.00E+00 SK= 0.00E+00
 bond charge predicted
 prediction of wavefunctions
       N       E                     dE             d eps       ncg     rms          rms(c)
DAV:   1    -0.182531659037E+04    0.60494E+00   -0.19751E+01  3312   0.804E+00    0.372E+00
DAV:   2    -0.182587903294E+04   -0.56244E+00   -0.60180E+00  3468   0.245E+00    0.159E+00
DAV:   3    -0.182595968691E+04   -0.80654E-01   -0.84869E-01  6132   0.913E-01    0.125E+00
DAV:   4    -0.182596071145E+04   -0.10245E-02   -0.77815E-02  5856   0.277E-01    0.893E-01
DAV:   5    -0.182595888759E+04    0.18239E-02   -0.74343E-03  5784   0.842E-02    0.637E-01
DAV:   6    -0.182595776384E+04    0.11238E-02   -0.37157E-03  4764   0.560E-02    0.276E-01
DAV:   7    -0.182595790071E+04   -0.13687E-03   -0.26996E-03  4932   0.404E-02    0.111E-01
DAV:   8    -0.182595791024E+04   -0.95326E-05   -0.39424E-04  5652   0.178E-02    0.113E-01
DAV:   9    -0.182595792920E+04   -0.18966E-04   -0.45722E-05  3036   0.654E-03    0.894E-02
DAV:  10    -0.182595789973E+04    0.29479E-04   -0.18104E-05  1968   0.516E-03    0.588E-02
DAV:  11    -0.182595786557E+04    0.34154E-04   -0.86852E-05  4032   0.770E-03    0.315E-02
DAV:  12    -0.182595786663E+04   -0.10547E-05   -0.94089E-06  1848   0.379E-03
     24 T=   741. E= -.17843174E+04 F= -.18259579E+04 E0= -.18259579E+04  EK= 0.41640E+02 SP= 0.00E+00 SK= 0.00E+00
 bond charge predicted
 prediction of wavefunctions
       N       E                     dE             d eps       ncg     rms          rms(c)
DAV:   1    -0.182539106768E+04    0.56680E+00   -0.19874E+01  3432   0.798E+00    0.387E+00
DAV:   2    -0.182595392410E+04   -0.56286E+00   -0.60359E+00  3504   0.242E+00    0.164E+00
DAV:   3    -0.182603798196E+04   -0.84058E-01   -0.88326E-01  6144   0.912E-01    0.127E+00
DAV:   4    -0.182603893614E+04   -0.95418E-03   -0.82979E-02  5904   0.287E-01    0.911E-01
DAV:   5    -0.182603724030E+04    0.16958E-02   -0.76564E-03  5736   0.836E-02    0.665E-01
DAV:   6    -0.182603602749E+04    0.12128E-02   -0.38442E-03  4800   0.577E-02    0.278E-01
DAV:   7    -0.182603618976E+04   -0.16227E-03   -0.28243E-03  4908   0.414E-02    0.125E-01
DAV:   8    -0.182603621094E+04   -0.21182E-04   -0.37283E-04  5544   0.173E-02    0.119E-01
DAV:   9    -0.182603623885E+04   -0.27903E-04   -0.57829E-05  3204   0.701E-03    0.898E-02
DAV:  10    -0.182603618206E+04    0.56785E-04   -0.44139E-05  3000   0.693E-03    0.577E-02
DAV:  11    -0.182603615882E+04    0.23245E-04   -0.68404E-05  3240   0.613E-03    0.334E-02
DAV:  12    -0.182603615920E+04   -0.37861E-06   -0.54035E-06  1812   0.286E-03
     25 T=   744. E= -.17841913E+04 F= -.18260362E+04 E0= -.18260362E+04  EK= 0.41845E+02 SP= 0.00E+00 SK= 0.00E+00
 bond charge predicted
 prediction of wavefunctions
       N       E                     dE             d eps       ncg     rms          rms(c)
DAV:   1    -0.182557917230E+04    0.45699E+00   -0.18134E+01  3432   0.804E+00    0.370E+00
DAV:   2    -0.182612903704E+04   -0.54986E+00   -0.58918E+00  3420   0.240E+00    0.159E+00
DAV:   3    -0.182620587283E+04   -0.76836E-01   -0.81426E-01  6132   0.903E-01    0.124E+00
DAV:   4    -0.182620680970E+04   -0.93687E-03   -0.76825E-02  5940   0.275E-01    0.892E-01
DAV:   5    -0.182620495364E+04    0.18561E-02   -0.71649E-03  5760   0.819E-02    0.645E-01
DAV:   6    -0.182620370688E+04    0.12468E-02   -0.37847E-03  4800   0.563E-02    0.278E-01
DAV:   7    -0.182620380296E+04   -0.96078E-04   -0.27089E-03  5004   0.403E-02    0.113E-01
DAV:   8    -0.182620382678E+04   -0.23818E-04   -0.36094E-04  5604   0.170E-02    0.114E-01
DAV:   9    -0.182620384675E+04   -0.19971E-04   -0.41748E-05  2784   0.633E-03    0.901E-02
DAV:  10    -0.182620381290E+04    0.33850E-04   -0.19163E-05  1956   0.552E-03    0.575E-02
DAV:  11    -0.182620377948E+04    0.33417E-04   -0.92068E-05  4092   0.775E-03    0.310E-02
DAV:  12    -0.182620378046E+04   -0.97617E-06   -0.84664E-06  1812   0.370E-03
     26 T=   750. E= -.17840140E+04 F= -.18262038E+04 E0= -.18262038E+04  EK= 0.42190E+02 SP= 0.00E+00 SK= 0.00E+00
 bond charge predicted
 prediction of wavefunctions
       N       E                     dE             d eps       ncg     rms          rms(c)
DAV:   1    -0.182577788070E+04    0.42590E+00   -0.18416E+01  3372   0.805E+00    0.352E+00
DAV:   2    -0.182632861055E+04   -0.55073E+00   -0.59174E+00  3480   0.241E+00    0.149E+00
DAV:   3    -0.182640279989E+04   -0.74189E-01   -0.79333E-01  6156   0.899E-01    0.120E+00
DAV:   4    -0.182640347623E+04   -0.67635E-03   -0.75902E-02  5820   0.270E-01    0.849E-01
DAV:   5    -0.182640135956E+04    0.21167E-02   -0.73376E-03  5784   0.850E-02    0.606E-01
DAV:   6    -0.182640009802E+04    0.12615E-02   -0.38234E-03  4608   0.562E-02    0.275E-01
DAV:   7    -0.182640018187E+04   -0.83842E-04   -0.29875E-03  4980   0.430E-02    0.101E-01
DAV:   8    -0.182640018926E+04   -0.73907E-05   -0.45005E-04  5460   0.191E-02    0.112E-01
DAV:   9    -0.182640020802E+04   -0.18762E-04   -0.46546E-05  3084   0.687E-03    0.919E-02
DAV:  10    -0.182640019182E+04    0.16203E-04   -0.15114E-05  1872   0.484E-03    0.660E-02
DAV:  11    -0.182640015305E+04    0.38762E-04   -0.87381E-05  3936   0.814E-03    0.340E-02
DAV:  12    -0.182640015423E+04   -0.11814E-05   -0.12132E-05  1920   0.420E-03
     27 T=   755. E= -.17839596E+04 F= -.18264002E+04 E0= -.18264002E+04  EK= 0.42441E+02 SP= 0.00E+00 SK= 0.00E+00
 bond charge predicted
 prediction of wavefunctions
       N       E                     dE             d eps       ncg     rms          rms(c)
DAV:   1    -0.182594359967E+04    0.45655E+00   -0.18723E+01  3384   0.799E+00    0.371E+00
DAV:   2    -0.182649519905E+04   -0.55160E+00   -0.58874E+00  3456   0.245E+00    0.155E+00
DAV:   3    -0.182657046029E+04   -0.75261E-01   -0.79352E-01  6144   0.889E-01    0.125E+00
DAV:   4    -0.182657154187E+04   -0.10816E-02   -0.75172E-02  5772   0.271E-01    0.890E-01
DAV:   5    -0.182656989214E+04    0.16497E-02   -0.69883E-03  5856   0.844E-02    0.647E-01
DAV:   6    -0.182656871773E+04    0.11744E-02   -0.36045E-03  4704   0.568E-02    0.276E-01
DAV:   7    -0.182656883688E+04   -0.11915E-03   -0.26682E-03  4932   0.400E-02    0.115E-01
DAV:   8    -0.182656885927E+04   -0.22390E-04   -0.36885E-04  5556   0.168E-02    0.113E-01
DAV:   9    -0.182656888754E+04   -0.28267E-04   -0.60443E-05  3348   0.702E-03    0.870E-02
DAV:  10    -0.182656884303E+04    0.44506E-04   -0.29096E-05  2352   0.618E-03    0.535E-02
DAV:  11    -0.182656881311E+04    0.29917E-04   -0.88141E-05  3780   0.748E-03    0.314E-02
DAV:  12    -0.182656881415E+04   -0.10379E-05   -0.79409E-06  1800   0.359E-03
     28 T=   757. E= -.17839992E+04 F= -.18265688E+04 E0= -.18265688E+04  EK= 0.42570E+02 SP= 0.00E+00 SK= 0.00E+00
 bond charge predicted
 prediction of wavefunctions
       N       E                     dE             d eps       ncg     rms          rms(c)
DAV:   1    -0.182605638732E+04    0.51243E+00   -0.18741E+01  3444   0.819E+00    0.375E+00
DAV:   2    -0.182661259260E+04   -0.55621E+00   -0.59719E+00  3444   0.241E+00    0.159E+00
DAV:   3    -0.182669113547E+04   -0.78543E-01   -0.82979E-01  6168   0.911E-01    0.125E+00
DAV:   4    -0.182669191598E+04   -0.78051E-03   -0.78361E-02  5844   0.275E-01    0.891E-01
DAV:   5    -0.182668990060E+04    0.20154E-02   -0.74187E-03  5736   0.848E-02    0.626E-01
DAV:   6    -0.182668880866E+04    0.10919E-02   -0.36842E-03  4668   0.558E-02    0.276E-01
DAV:   7    -0.182668894065E+04   -0.13200E-03   -0.25925E-03  4932   0.405E-02    0.109E-01
DAV:   8    -0.182668894830E+04   -0.76435E-05   -0.42711E-04  5496   0.183E-02    0.114E-01
DAV:   9    -0.182668896379E+04   -0.15495E-04   -0.40245E-05  2808   0.668E-03    0.942E-02
DAV:  10    -0.182668894342E+04    0.20367E-04   -0.18892E-05  1956   0.593E-03    0.600E-02
DAV:  11    -0.182668890323E+04    0.40196E-04   -0.85551E-05  3972   0.808E-03    0.331E-02
DAV:  12    -0.182668890436E+04   -0.11345E-05   -0.10864E-05  1896   0.434E-03
     29 T=   756. E= -.17841853E+04 F= -.18266889E+04 E0= -.18266889E+04  EK= 0.42504E+02 SP= 0.00E+00 SK= 0.00E+00
 bond charge predicted
 prediction of wavefunctions
       N       E                     dE             d eps       ncg     rms          rms(c)
DAV:   1    -0.182621166236E+04    0.47724E+00   -0.21169E+01  3432   0.831E+00    0.374E+00
DAV:   2    -0.182677636439E+04   -0.56470E+00   -0.60454E+00  3372   0.246E+00    0.157E+00
DAV:   3    -0.182685354153E+04   -0.77177E-01   -0.82283E-01  6144   0.918E-01    0.127E+00
DAV:   4    -0.182685436698E+04   -0.82545E-03   -0.76127E-02  5832   0.273E-01    0.908E-01
DAV:   5    -0.182685238714E+04    0.19798E-02   -0.71916E-03  5796   0.839E-02    0.666E-01
DAV:   6    -0.182685105671E+04    0.13304E-02   -0.37026E-03  4632   0.570E-02    0.303E-01
DAV:   7    -0.182685111167E+04   -0.54959E-04   -0.30959E-03  4968   0.438E-02    0.108E-01
DAV:   8    -0.182685112901E+04   -0.17342E-04   -0.44840E-04  5460   0.189E-02    0.115E-01
DAV:   9    -0.182685115212E+04   -0.23112E-04   -0.57387E-05  3192   0.745E-03    0.905E-02
DAV:  10    -0.182685112694E+04    0.25180E-04   -0.17482E-05  1968   0.511E-03    0.619E-02
DAV:  11    -0.182685109305E+04    0.33889E-04   -0.86157E-05  4080   0.797E-03    0.334E-02
DAV:  12    -0.182685109417E+04   -0.11173E-05   -0.99687E-06  1848   0.395E-03
     30 T=   756. E= -.17843443E+04 F= -.18268511E+04 E0= -.18268511E+04  EK= 0.42507E+02 SP= 0.00E+00 SK= 0.00E+00
 bond charge predicted
 prediction of wavefunctions
       N       E                     dE             d eps       ncg     rms          rms(c)
DAV:   1    -0.182631663785E+04    0.53446E+00   -0.20331E+01  3456   0.818E+00    0.383E+00
DAV:   2    -0.182687883496E+04   -0.56220E+00   -0.60028E+00  3468   0.246E+00    0.159E+00
DAV:   3    -0.182695773405E+04   -0.78899E-01   -0.83194E-01  6168   0.905E-01    0.129E+00
DAV:   4    -0.182695869160E+04   -0.95755E-03   -0.76015E-02  5892   0.274E-01    0.913E-01
DAV:   5    -0.182695691225E+04    0.17793E-02   -0.69596E-03  5760   0.808E-02    0.663E-01
DAV:   6    -0.182695575945E+04    0.11528E-02   -0.34963E-03  4752   0.549E-02    0.289E-01
DAV:   7    -0.182695586094E+04   -0.10149E-03   -0.26333E-03  5004   0.397E-02    0.111E-01
DAV:   8    -0.182695588139E+04   -0.20456E-04   -0.39902E-04  5628   0.172E-02    0.111E-01
DAV:   9    -0.182695590618E+04   -0.24785E-04   -0.54235E-05  3144   0.711E-03    0.872E-02
DAV:  10    -0.182695587185E+04    0.34327E-04   -0.20033E-05  1992   0.550E-03    0.574E-02
DAV:  11    -0.182695583863E+04    0.33218E-04   -0.96703E-05  4140   0.791E-03    0.314E-02
DAV:  12    -0.182695583991E+04   -0.12739E-05   -0.91975E-06  1848   0.362E-03
     31 T=   755. E= -.17844844E+04 F= -.18269558E+04 E0= -.18269558E+04  EK= 0.42471E+02 SP= 0.00E+00 SK= 0.00E+00
 bond charge predicted
 prediction of wavefunctions
       N       E                     dE             d eps       ncg     rms          rms(c)
DAV:   1    -0.182641403722E+04    0.54180E+00   -0.19068E+01  3540   0.820E+00    0.368E+00
DAV:   2    -0.182695644979E+04   -0.54241E+00   -0.57895E+00  3480   0.243E+00    0.152E+00
DAV:   3    -0.182702923655E+04   -0.72787E-01   -0.76852E-01  6156   0.886E-01    0.124E+00
DAV:   4    -0.182702989528E+04   -0.65872E-03   -0.69475E-02  5808   0.264E-01    0.876E-01
DAV:   5    -0.182702812201E+04    0.17733E-02   -0.66528E-03  5772   0.817E-02    0.634E-01
DAV:   6    -0.182702702639E+04    0.10956E-02   -0.31860E-03  4668   0.525E-02    0.288E-01
DAV:   7    -0.182702711073E+04   -0.84344E-04   -0.26115E-03  5004   0.397E-02    0.105E-01
DAV:   8    -0.182702712042E+04   -0.96848E-05   -0.40382E-04  5532   0.174E-02    0.108E-01
DAV:   9    -0.182702714390E+04   -0.23483E-04   -0.52802E-05  3240   0.727E-03    0.858E-02
DAV:  10    -0.182702712363E+04    0.20272E-04   -0.13213E-05  1908   0.459E-03    0.603E-02
DAV:  11    -0.182702708438E+04    0.39250E-04   -0.89405E-05  3900   0.804E-03    0.305E-02
DAV:  12    -0.182702708585E+04   -0.14689E-05   -0.13352E-05  1992   0.409E-03
     32 T=   755. E= -.17845609E+04 F= -.18270271E+04 E0= -.18270271E+04  EK= 0.42466E+02 SP= 0.00E+00 SK= 0.00E+00
 bond charge predicted
 prediction of wavefunctions
       N       E                     dE             d eps       ncg     rms          rms(c)
DAV:   1    -0.182643299227E+04    0.59409E+00   -0.18912E+01  3540   0.807E+00    0.369E+00
DAV:   2    -0.182697717022E+04   -0.54418E+00   -0.58379E+00  3432   0.241E+00    0.154E+00
DAV:   3    -0.182704783121E+04   -0.70661E-01   -0.75710E-01  6132   0.888E-01    0.126E+00
DAV:   4    -0.182704826278E+04   -0.43158E-03   -0.70562E-02  5880   0.268E-01    0.898E-01
DAV:   5    -0.182704605828E+04    0.22045E-02   -0.66361E-03  5796   0.802E-02    0.656E-01
DAV:   6    -0.182704472751E+04    0.13308E-02   -0.37600E-03  4716   0.561E-02    0.307E-01
DAV:   7    -0.182704473935E+04   -0.11843E-04   -0.28046E-03  5004   0.415E-02    0.104E-01
DAV:   8    -0.182704476403E+04   -0.24680E-04   -0.42513E-04  5460   0.178E-02    0.109E-01
DAV:   9    -0.182704478486E+04   -0.20833E-04   -0.49997E-05  3048   0.736E-03    0.872E-02
DAV:  10    -0.182704477078E+04    0.14088E-04   -0.14583E-05  1896   0.483E-03    0.607E-02
DAV:  11    -0.182704473478E+04    0.35998E-04   -0.66829E-05  3468   0.767E-03    0.329E-02
DAV:  12    -0.182704473564E+04   -0.85807E-06   -0.12357E-05  1872   0.420E-03
     33 T=   754. E= -.17846573E+04 F= -.18270447E+04 E0= -.18270447E+04  EK= 0.42387E+02 SP= 0.00E+00 SK= 0.00E+00
 bond charge predicted
 prediction of wavefunctions
       N       E                     dE             d eps       ncg     rms          rms(c)
DAV:   1    -0.182640941770E+04    0.63532E+00   -0.17861E+01  3516   0.795E+00    0.386E+00
DAV:   2    -0.182694950029E+04   -0.54008E+00   -0.58056E+00  3444   0.240E+00    0.165E+00
DAV:   3    -0.182701970653E+04   -0.70206E-01   -0.75606E-01  6072   0.900E-01    0.127E+00
DAV:   4    -0.182701982649E+04   -0.11995E-03   -0.72003E-02  5940   0.265E-01    0.934E-01
DAV:   5    -0.182701754641E+04    0.22801E-02   -0.68623E-03  5736   0.812E-02    0.677E-01
DAV:   6    -0.182701616341E+04    0.13830E-02   -0.36859E-03  4836   0.560E-02    0.319E-01
DAV:   7    -0.182701616410E+04   -0.69122E-06   -0.29631E-03  4980   0.424E-02    0.108E-01
DAV:   8    -0.182701618622E+04   -0.22118E-04   -0.47259E-04  5352   0.188E-02    0.114E-01
DAV:   9    -0.182701620464E+04   -0.18414E-04   -0.51863E-05  3204   0.759E-03    0.916E-02
DAV:  10    -0.182701619173E+04    0.12903E-04   -0.14123E-05  1836   0.467E-03    0.671E-02
DAV:  11    -0.182701615589E+04    0.35839E-04   -0.76347E-05  3696   0.796E-03    0.344E-02
DAV:  12    -0.182701615650E+04   -0.60265E-06   -0.13344E-05  1932   0.415E-03
     34 T=   744. E= -.17851862E+04 F= -.18270162E+04 E0= -.18270162E+04  EK= 0.41830E+02 SP= 0.00E+00 SK= 0.00E+00
 bond charge predicted
 prediction of wavefunctions
       N       E                     dE             d eps       ncg     rms          rms(c)
DAV:   1    -0.182626960219E+04    0.74655E+00   -0.17936E+01  3444   0.792E+00    0.363E+00
DAV:   2    -0.182679522903E+04   -0.52563E+00   -0.56529E+00  3444   0.235E+00    0.155E+00
DAV:   3    -0.182686505557E+04   -0.69827E-01   -0.75079E-01  6048   0.890E-01    0.123E+00
DAV:   4    -0.182686557240E+04   -0.51683E-03   -0.72579E-02  5916   0.271E-01    0.883E-01
DAV:   5    -0.182686339121E+04    0.21812E-02   -0.66701E-03  5796   0.805E-02    0.636E-01
DAV:   6    -0.182686208357E+04    0.13076E-02   -0.38260E-03  4692   0.566E-02    0.289E-01
DAV:   7    -0.182686214105E+04   -0.57485E-04   -0.27973E-03  5040   0.412E-02    0.106E-01
DAV:   8    -0.182686216433E+04   -0.23277E-04   -0.42622E-04  5508   0.171E-02    0.112E-01
DAV:   9    -0.182686219022E+04   -0.25891E-04   -0.59788E-05  3480   0.748E-03    0.888E-02
DAV:  10    -0.182686216684E+04    0.23386E-04   -0.15686E-05  1872   0.478E-03    0.611E-02
DAV:  11    -0.182686212704E+04    0.39794E-04   -0.95290E-05  4188   0.839E-03    0.326E-02
DAV:  12    -0.182686212838E+04   -0.13374E-05   -0.11708E-05  1944   0.394E-03
     35 T=   735. E= -.17855145E+04 F= -.18268621E+04 E0= -.18268621E+04  EK= 0.41348E+02 SP= 0.00E+00 SK= 0.00E+00
 bond charge predicted
 prediction of wavefunctions
       N       E                     dE             d eps       ncg     rms          rms(c)
DAV:   1    -0.182603081686E+04    0.83131E+00   -0.18398E+01  3588   0.788E+00    0.381E+00
DAV:   2    -0.182656597648E+04   -0.53516E+00   -0.57386E+00  3540   0.241E+00    0.160E+00
DAV:   3    -0.182663715972E+04   -0.71183E-01   -0.75881E-01  6132   0.882E-01    0.128E+00
DAV:   4    -0.182663775827E+04   -0.59855E-03   -0.69232E-02  5856   0.268E-01    0.924E-01
DAV:   5    -0.182663578255E+04    0.19757E-02   -0.64591E-03  5724   0.792E-02    0.675E-01
DAV:   6    -0.182663452378E+04    0.12588E-02   -0.34874E-03  4752   0.552E-02    0.311E-01
DAV:   7    -0.182663455705E+04   -0.33265E-04   -0.28073E-03  4980   0.417E-02    0.108E-01
DAV:   8    -0.182663458173E+04   -0.24681E-04   -0.42969E-04  5412   0.176E-02    0.110E-01
DAV:   9    -0.182663460365E+04   -0.21918E-04   -0.56698E-05  3456   0.746E-03    0.859E-02
DAV:  10    -0.182663457927E+04    0.24373E-04   -0.17415E-05  1908   0.498E-03    0.562E-02
DAV:  11    -0.182663454823E+04    0.31039E-04   -0.83958E-05  4068   0.786E-03    0.305E-02
DAV:  12    -0.182663454920E+04   -0.96729E-06   -0.88670E-06  1848   0.370E-03
     36 T=   733. E= -.17854384E+04 F= -.18266345E+04 E0= -.18266345E+04  EK= 0.41196E+02 SP= 0.00E+00 SK= 0.00E+00
 bond charge predicted
 prediction of wavefunctions
       N       E                     dE             d eps       ncg     rms          rms(c)
DAV:   1    -0.182579494231E+04    0.83961E+00   -0.18158E+01  3564   0.787E+00    0.373E+00
DAV:   2    -0.182632404521E+04   -0.52910E+00   -0.56886E+00  3456   0.236E+00    0.160E+00
DAV:   3    -0.182638883943E+04   -0.64794E-01   -0.70226E-01  6024   0.879E-01    0.124E+00
DAV:   4    -0.182638889199E+04   -0.52569E-04   -0.67080E-02  5976   0.257E-01    0.913E-01
DAV:   5    -0.182638666306E+04    0.22289E-02   -0.63225E-03  5796   0.772E-02    0.674E-01
DAV:   6    -0.182638519036E+04    0.14727E-02   -0.39148E-03  4764   0.567E-02    0.311E-01
DAV:   7    -0.182638519485E+04   -0.44876E-05   -0.29820E-03  5004   0.418E-02    0.110E-01
DAV:   8    -0.182638522728E+04   -0.32428E-04   -0.41582E-04  5448   0.170E-02    0.113E-01
DAV:   9    -0.182638525208E+04   -0.24798E-04   -0.57747E-05  3420   0.755E-03    0.882E-02
DAV:  10    -0.182638522933E+04    0.22751E-04   -0.14840E-05  1884   0.489E-03    0.604E-02
DAV:  11    -0.182638519446E+04    0.34863E-04   -0.83291E-05  3840   0.783E-03    0.318E-02
DAV:  12    -0.182638519551E+04   -0.10477E-05   -0.97117E-06  1848   0.402E-03
     37 T=   728. E= -.17854682E+04 F= -.18263852E+04 E0= -.18263852E+04  EK= 0.40917E+02 SP= 0.00E+00 SK= 0.00E+00
 bond charge predicted
 prediction of wavefunctions
       N       E                     dE             d eps       ncg     rms          rms(c)
DAV:   1    -0.182556981616E+04    0.81538E+00   -0.17177E+01  3636   0.771E+00    0.369E+00
DAV:   2    -0.182607748152E+04   -0.50767E+00   -0.54499E+00  3432   0.235E+00    0.155E+00
DAV:   3    -0.182614426719E+04   -0.66786E-01   -0.71612E-01  6096   0.874E-01    0.124E+00
DAV:   4    -0.182614464149E+04   -0.37430E-03   -0.66713E-02  5976   0.260E-01    0.889E-01
DAV:   5    -0.182614262287E+04    0.20186E-02   -0.61644E-03  5760   0.775E-02    0.645E-01
DAV:   6    -0.182614145638E+04    0.11665E-02   -0.34780E-03  4836   0.545E-02    0.295E-01
DAV:   7    -0.182614148859E+04   -0.32212E-04   -0.24134E-03  5004   0.387E-02    0.103E-01
DAV:   8    -0.182614151393E+04   -0.25333E-04   -0.37458E-04  5532   0.165E-02    0.107E-01
DAV:   9    -0.182614152594E+04   -0.12017E-04   -0.26179E-05  2244   0.663E-03    0.903E-02
DAV:  10    -0.182614152786E+04   -0.19151E-05   -0.55579E-05  3276   0.695E-03
     38 T=   724. E= -.17854270E+04 F= -.18261415E+04 E0= -.18261415E+04  EK= 0.40715E+02 SP= 0.00E+00 SK= 0.00E+00
 bond charge predicted
 prediction of wavefunctions
       N       E                     dE             d eps       ncg     rms          rms(c)
DAV:   1    -0.182532840550E+04    0.81312E+00   -0.16448E+01  3756   0.761E+00    0.377E+00
DAV:   2    -0.182583053509E+04   -0.50213E+00   -0.54067E+00  3432   0.234E+00    0.161E+00
DAV:   3    -0.182589505456E+04   -0.64519E-01   -0.69482E-01  6084   0.869E-01    0.125E+00
DAV:   4    -0.182589498420E+04    0.70365E-04   -0.66170E-02  5904   0.256E-01    0.913E-01
DAV:   5    -0.182589283939E+04    0.21448E-02   -0.63645E-03  5760   0.793E-02    0.662E-01
DAV:   6    -0.182589156120E+04    0.12782E-02   -0.36317E-03  4776   0.557E-02    0.301E-01
DAV:   7    -0.182589160617E+04   -0.44966E-04   -0.26045E-03  5004   0.396E-02    0.112E-01
DAV:   8    -0.182589163681E+04   -0.30643E-04   -0.40108E-04  5520   0.168E-02    0.113E-01
DAV:   9    -0.182589165625E+04   -0.19445E-04   -0.44155E-05  2964   0.725E-03    0.906E-02
DAV:  10    -0.182589163762E+04    0.18635E-04   -0.15847E-05  1908   0.527E-03    0.582E-02
DAV:  11    -0.182589160106E+04    0.36556E-04   -0.80263E-05  3900   0.794E-03    0.309E-02
DAV:  12    -0.182589160222E+04   -0.11548E-05   -0.10834E-05  1908   0.400E-03
     39 T=   721. E= -.17853482E+04 F= -.18258916E+04 E0= -.18258916E+04  EK= 0.40543E+02 SP= 0.00E+00 SK= 0.00E+00
 bond charge predicted
 prediction of wavefunctions
       N       E                     dE             d eps       ncg     rms          rms(c)
DAV:   1    -0.182513513805E+04    0.75646E+00   -0.18285E+01  3516   0.756E+00    0.378E+00
DAV:   2    -0.182565129766E+04   -0.51616E+00   -0.55377E+00  3456   0.233E+00    0.162E+00
DAV:   3    -0.182571749544E+04   -0.66198E-01   -0.71462E-01  6084   0.872E-01    0.126E+00
DAV:   4    -0.182571779523E+04   -0.29978E-03   -0.68340E-02  6012   0.260E-01    0.927E-01
DAV:   5    -0.182571554419E+04    0.22510E-02   -0.64058E-03  5796   0.772E-02    0.669E-01
DAV:   6    -0.182571430484E+04    0.12394E-02   -0.37540E-03  4884   0.566E-02    0.313E-01
DAV:   7    -0.182571432041E+04   -0.15574E-04   -0.25769E-03  5088   0.410E-02    0.103E-01
DAV:   8    -0.182571434408E+04   -0.23664E-04   -0.41836E-04  5268   0.177E-02    0.112E-01
DAV:   9    -0.182571435331E+04   -0.92305E-05   -0.26580E-05  2304   0.657E-03
     40 T=   718. E= -.17853452E+04 F= -.18257144E+04 E0= -.18257144E+04  EK= 0.40369E+02 SP= 0.00E+00 SK= 0.00E+00
 bond charge predicted
 prediction of wavefunctions
       N       E                     dE             d eps       ncg     rms          rms(c)
DAV:   1    -0.182506078103E+04    0.65356E+00   -0.18265E+01  3624   0.771E+00    0.385E+00
DAV:   2    -0.182556867466E+04   -0.50789E+00   -0.54562E+00  3420   0.232E+00    0.163E+00
DAV:   3    -0.182563536295E+04   -0.66688E-01   -0.71775E-01  6108   0.882E-01    0.127E+00
DAV:   4    -0.182563552009E+04   -0.15714E-03   -0.68386E-02  6000   0.259E-01    0.924E-01
DAV:   5    -0.182563344805E+04    0.20720E-02   -0.67156E-03  5724   0.784E-02    0.660E-01
DAV:   6    -0.182563233739E+04    0.11107E-02   -0.34583E-03  4944   0.544E-02    0.298E-01
DAV:   7    -0.182563241256E+04   -0.75165E-04   -0.25225E-03  4920   0.396E-02    0.104E-01
DAV:   8    -0.182563242348E+04   -0.10918E-04   -0.42028E-04  5484   0.182E-02    0.110E-01
DAV:   9    -0.182563243326E+04   -0.97803E-05   -0.26200E-05  2340   0.664E-03
     41 T=   722. E= -.17850109E+04 F= -.18256324E+04 E0= -.18256324E+04  EK= 0.40622E+02 SP= 0.00E+00 SK= 0.00E+00
 bond charge predicted
 prediction of wavefunctions
       N       E                     dE             d eps       ncg     rms          rms(c)
DAV:   1    -0.182506430891E+04    0.56811E+00   -0.17926E+01  3480   0.753E+00    0.377E+00
DAV:   2    -0.182558573006E+04   -0.52142E+00   -0.55845E+00  3444   0.237E+00    0.159E+00
DAV:   3    -0.182565285092E+04   -0.67121E-01   -0.72099E-01  6072   0.866E-01    0.126E+00
DAV:   4    -0.182565344347E+04   -0.59255E-03   -0.68601E-02  6012   0.262E-01    0.910E-01
DAV:   5    -0.182565141794E+04    0.20255E-02   -0.63785E-03  5808   0.763E-02    0.659E-01
DAV:   6    -0.182565022769E+04    0.11902E-02   -0.36717E-03  4836   0.567E-02    0.293E-01
DAV:   7    -0.182565028612E+04   -0.58427E-04   -0.24514E-03  5076   0.398E-02    0.108E-01
DAV:   8    -0.182565030773E+04   -0.21612E-04   -0.34061E-04  5472   0.160E-02    0.110E-01
DAV:   9    -0.182565031894E+04   -0.11215E-04   -0.22558E-05  2040   0.627E-03    0.928E-02
DAV:  10    -0.182565031494E+04    0.40031E-05   -0.65389E-05  3564   0.751E-03
     42 T=   729. E= -.17846784E+04 F= -.18256503E+04 E0= -.18256503E+04  EK= 0.40972E+02 SP= 0.00E+00 SK= 0.00E+00
 bond charge predicted
 prediction of wavefunctions
       N       E                     dE             d eps       ncg     rms          rms(c)
DAV:   1    -0.182520452404E+04    0.44579E+00   -0.18056E+01  3456   0.757E+00    0.380E+00
DAV:   2    -0.182572495073E+04   -0.52043E+00   -0.55755E+00  3432   0.236E+00    0.163E+00
DAV:   3    -0.182579197111E+04   -0.67020E-01   -0.72089E-01  6108   0.880E-01    0.127E+00
DAV:   4    -0.182579256883E+04   -0.59772E-03   -0.68790E-02  6048   0.259E-01    0.941E-01
DAV:   5    -0.182579056478E+04    0.20041E-02   -0.61337E-03  5760   0.762E-02    0.704E-01
DAV:   6    -0.182578899916E+04    0.15656E-02   -0.43257E-03  4716   0.606E-02    0.295E-01
DAV:   7    -0.182578904376E+04   -0.44596E-04   -0.29080E-03  4944   0.417E-02    0.120E-01
DAV:   8    -0.182578907586E+04   -0.32107E-04   -0.34258E-04  5556   0.159E-02    0.115E-01
DAV:   9    -0.182578909795E+04   -0.22089E-04   -0.55354E-05  3168   0.687E-03    0.844E-02
DAV:  10    -0.182578906622E+04    0.31733E-04   -0.33993E-05  2760   0.640E-03    0.476E-02
DAV:  11    -0.182578904773E+04    0.18493E-04   -0.37575E-05  2628   0.583E-03    0.326E-02
DAV:  12    -0.182578904733E+04    0.39631E-06   -0.89335E-06  1800   0.469E-03
     43 T=   742. E= -.17840559E+04 F= -.18257890E+04 E0= -.18257890E+04  EK= 0.41733E+02 SP= 0.00E+00 SK= 0.00E+00
 bond charge predicted
 prediction of wavefunctions
       N       E                     dE             d eps       ncg     rms          rms(c)
DAV:   1    -0.182540397101E+04    0.38508E+00   -0.17259E+01  3468   0.765E+00    0.379E+00
DAV:   2    -0.182593557834E+04   -0.53161E+00   -0.57025E+00  3420   0.236E+00    0.164E+00
DAV:   3    -0.182600579747E+04   -0.70219E-01   -0.75355E-01  6144   0.884E-01    0.126E+00
DAV:   4    -0.182600628699E+04   -0.48952E-03   -0.71866E-02  5976   0.267E-01    0.919E-01
DAV:   5    -0.182600416032E+04    0.21267E-02   -0.66455E-03  5772   0.779E-02    0.663E-01
DAV:   6    -0.182600290669E+04    0.12536E-02   -0.37432E-03  4908   0.566E-02    0.302E-01
DAV:   7    -0.182600295621E+04   -0.49523E-04   -0.27295E-03  4980   0.410E-02    0.107E-01
DAV:   8    -0.182600297998E+04   -0.23766E-04   -0.44228E-04  5436   0.182E-02    0.114E-01
DAV:   9    -0.182600299355E+04   -0.13568E-04   -0.37941E-05  2628   0.694E-03    0.957E-02
DAV:  10    -0.182600298329E+04    0.10256E-04   -0.18951E-05  1884   0.587E-03    0.660E-02
DAV:  11    -0.182600294680E+04    0.36493E-04   -0.88192E-05  4068   0.845E-03    0.350E-02
DAV:  12    -0.182600294725E+04   -0.45684E-06   -0.11119E-05  1884   0.424E-03
     44 T=   757. E= -.17834176E+04 F= -.18260029E+04 E0= -.18260029E+04  EK= 0.42585E+02 SP= 0.00E+00 SK= 0.00E+00
 bond charge predicted
 prediction of wavefunctions
       N       E                     dE             d eps       ncg     rms          rms(c)
DAV:   1    -0.182565870636E+04    0.34424E+00   -0.18180E+01  3456   0.779E+00    0.378E+00
DAV:   2    -0.182620951943E+04   -0.55081E+00   -0.58910E+00  3468   0.243E+00    0.160E+00
DAV:   3    -0.182628072335E+04   -0.71204E-01   -0.76325E-01  6156   0.881E-01    0.126E+00
DAV:   4    -0.182628151904E+04   -0.79569E-03   -0.72375E-02  5832   0.270E-01    0.910E-01
DAV:   5    -0.182627951500E+04    0.20040E-02   -0.70316E-03  5808   0.829E-02    0.652E-01
DAV:   6    -0.182627835895E+04    0.11561E-02   -0.36251E-03  4740   0.559E-02    0.295E-01
DAV:   7    -0.182627842740E+04   -0.68456E-04   -0.26937E-03  5088   0.413E-02    0.104E-01
DAV:   8    -0.182627844171E+04   -0.14301E-04   -0.40811E-04  5412   0.179E-02    0.112E-01
DAV:   9    -0.182627845373E+04   -0.12023E-04   -0.27223E-05  2244   0.674E-03    0.956E-02
DAV:  10    -0.182627845191E+04    0.18181E-05   -0.39980E-05  2640   0.686E-03
     45 T=   765. E= -.17832768E+04 F= -.18262785E+04 E0= -.18262785E+04  EK= 0.43002E+02 SP= 0.00E+00 SK= 0.00E+00
 bond charge predicted
 prediction of wavefunctions
       N       E                     dE             d eps       ncg     rms          rms(c)
DAV:   1    -0.182592076208E+04    0.35769E+00   -0.17709E+01  3432   0.776E+00    0.384E+00
DAV:   2    -0.182647514388E+04   -0.55438E+00   -0.59445E+00  3444   0.244E+00    0.163E+00
DAV:   3    -0.182654981721E+04   -0.74673E-01   -0.79433E-01  6168   0.890E-01    0.129E+00
DAV:   4    -0.182655052565E+04   -0.70844E-03   -0.75548E-02  5880   0.278E-01    0.941E-01
DAV:   5    -0.182654860206E+04    0.19236E-02   -0.69254E-03  5748   0.811E-02    0.697E-01
DAV:   6    -0.182654709869E+04    0.15034E-02   -0.39473E-03  4644   0.596E-02    0.309E-01
DAV:   7    -0.182654716849E+04   -0.69794E-04   -0.32752E-03  4956   0.446E-02    0.125E-01
DAV:   8    -0.182654720718E+04   -0.38692E-04   -0.41568E-04  5580   0.173E-02    0.121E-01
DAV:   9    -0.182654724137E+04   -0.34188E-04   -0.77158E-05  3816   0.784E-03    0.909E-02
DAV:  10    -0.182654719474E+04    0.46629E-04   -0.35570E-05  2592   0.667E-03    0.583E-02
DAV:  11    -0.182654716855E+04    0.26189E-04   -0.75121E-05  3396   0.685E-03    0.350E-02
DAV:  12    -0.182654716919E+04   -0.64203E-06   -0.66597E-06  1800   0.334E-03
     46 T=   775. E= -.17829922E+04 F= -.18265472E+04 E0= -.18265472E+04  EK= 0.43555E+02 SP= 0.00E+00 SK= 0.00E+00
 bond charge predicted
 prediction of wavefunctions
       N       E                     dE             d eps       ncg     rms          rms(c)
DAV:   1    -0.182613638661E+04    0.41078E+00   -0.17812E+01  3468   0.775E+00    0.381E+00
DAV:   2    -0.182669891981E+04   -0.56253E+00   -0.60081E+00  3444   0.245E+00    0.161E+00
DAV:   3    -0.182677465080E+04   -0.75731E-01   -0.80298E-01  6144   0.895E-01    0.128E+00
DAV:   4    -0.182677553610E+04   -0.88531E-03   -0.75259E-02  5856   0.276E-01    0.910E-01
DAV:   5    -0.182677371570E+04    0.18204E-02   -0.69714E-03  5784   0.825E-02    0.661E-01
DAV:   6    -0.182677252624E+04    0.11895E-02   -0.36092E-03  4812   0.558E-02    0.290E-01
DAV:   7    -0.182677261806E+04   -0.91820E-04   -0.25679E-03  5016   0.391E-02    0.117E-01
DAV:   8    -0.182677264441E+04   -0.26347E-04   -0.33064E-04  5604   0.158E-02    0.112E-01
DAV:   9    -0.182677266713E+04   -0.22728E-04   -0.46718E-05  2892   0.678E-03    0.865E-02
DAV:  10    -0.182677263255E+04    0.34585E-04   -0.21256E-05  2076   0.573E-03    0.532E-02
DAV:  11    -0.182677260435E+04    0.28200E-04   -0.81449E-05  4020   0.735E-03    0.305E-02
DAV:  12    -0.182677260520E+04   -0.85568E-06   -0.65311E-06  1800   0.348E-03
     47 T=   786. E= -.17825506E+04 F= -.18267726E+04 E0= -.18267726E+04  EK= 0.44222E+02 SP= 0.00E+00 SK= 0.00E+00
 bond charge predicted
 prediction of wavefunctions
       N       E                     dE             d eps       ncg     rms          rms(c)
DAV:   1    -0.182628496743E+04    0.48764E+00   -0.18225E+01  3396   0.783E+00    0.397E+00
DAV:   2    -0.182686706268E+04   -0.58210E+00   -0.62467E+00  3420   0.246E+00    0.171E+00
DAV:   3    -0.182695011473E+04   -0.83052E-01   -0.88522E-01  6108   0.921E-01    0.131E+00
DAV:   4    -0.182695078814E+04   -0.67341E-03   -0.81810E-02  5844   0.293E-01    0.957E-01
DAV:   5    -0.182694859541E+04    0.21927E-02   -0.75720E-03  5844   0.856E-02    0.694E-01
DAV:   6    -0.182694717937E+04    0.14160E-02   -0.38696E-03  4824   0.578E-02    0.323E-01
DAV:   7    -0.182694723272E+04   -0.53343E-04   -0.32066E-03  5052   0.440E-02    0.119E-01
DAV:   8    -0.182694725603E+04   -0.23314E-04   -0.49294E-04  5532   0.189E-02    0.123E-01
DAV:   9    -0.182694728508E+04   -0.29054E-04   -0.68417E-05  3840   0.790E-03    0.954E-02
DAV:  10    -0.182694725804E+04    0.27045E-04   -0.14955E-05  1944   0.482E-03    0.692E-02
DAV:  11    -0.182694721312E+04    0.44923E-04   -0.11480E-04  4152   0.893E-03    0.349E-02
DAV:  12    -0.182694721503E+04   -0.19101E-05   -0.14860E-05  2028   0.428E-03
     48 T=   793. E= -.17823797E+04 F= -.18269472E+04 E0= -.18269472E+04  EK= 0.44568E+02 SP= 0.00E+00 SK= 0.00E+00
 bond charge predicted
 prediction of wavefunctions
       N       E                     dE             d eps       ncg     rms          rms(c)
DAV:   1    -0.182636639176E+04    0.58082E+00   -0.19478E+01  3408   0.801E+00    0.384E+00
DAV:   2    -0.182693963064E+04   -0.57324E+00   -0.61441E+00  3384   0.244E+00    0.162E+00
DAV:   3    -0.182702656496E+04   -0.86934E-01   -0.91673E-01  6180   0.937E-01    0.130E+00
DAV:   4    -0.182702768794E+04   -0.11230E-02   -0.81702E-02  5880   0.293E-01    0.913E-01
DAV:   5    -0.182702587101E+04    0.18169E-02   -0.74667E-03  5724   0.849E-02    0.661E-01
DAV:   6    -0.182702467210E+04    0.11989E-02   -0.34750E-03  4836   0.570E-02    0.300E-01
DAV:   7    -0.182702477738E+04   -0.10528E-03   -0.30053E-03  4956   0.433E-02    0.117E-01
DAV:   8    -0.182702479669E+04   -0.19307E-04   -0.50531E-04  5472   0.191E-02    0.120E-01
DAV:   9    -0.182702482279E+04   -0.26103E-04   -0.72148E-05  3828   0.792E-03    0.936E-02
DAV:  10    -0.182702479029E+04    0.32507E-04   -0.19908E-05  2100   0.522E-03    0.664E-02
DAV:  11    -0.182702475397E+04    0.36321E-04   -0.11245E-04  4296   0.851E-03    0.346E-02
DAV:  12    -0.182702475567E+04   -0.17000E-05   -0.10338E-05  1860   0.397E-03
     49 T=   793. E= -.17824109E+04 F= -.18270248E+04 E0= -.18270248E+04  EK= 0.44614E+02 SP= 0.00E+00 SK= 0.00E+00
 bond charge predicted
 prediction of wavefunctions
       N       E                     dE             d eps       ncg     rms          rms(c)
DAV:   1    -0.182638253682E+04    0.64222E+00   -0.18479E+01  3444   0.800E+00    0.404E+00
DAV:   2    -0.182696135579E+04   -0.57882E+00   -0.62025E+00  3420   0.246E+00    0.173E+00
DAV:   3    -0.182704372372E+04   -0.82368E-01   -0.87505E-01  6132   0.942E-01    0.132E+00
DAV:   4    -0.182704424726E+04   -0.52353E-03   -0.80252E-02  5868   0.282E-01    0.964E-01
DAV:   5    -0.182704222794E+04    0.20193E-02   -0.74263E-03  5772   0.854E-02    0.706E-01
DAV:   6    -0.182704088055E+04    0.13474E-02   -0.36365E-03  4824   0.563E-02    0.328E-01
DAV:   7    -0.182704093415E+04   -0.53601E-04   -0.31086E-03  5052   0.430E-02    0.121E-01
DAV:   8    -0.182704095571E+04   -0.21559E-04   -0.46493E-04  5436   0.185E-02    0.122E-01
DAV:   9    -0.182704098502E+04   -0.29306E-04   -0.74211E-05  3900   0.810E-03    0.923E-02
DAV:  10    -0.182704095375E+04    0.31264E-04   -0.17904E-05  1968   0.543E-03    0.620E-02
DAV:  11    -0.182704091764E+04    0.36107E-04   -0.10044E-04  4200   0.828E-03    0.332E-02
DAV:  12    -0.182704091900E+04   -0.13533E-05   -0.99087E-06  1908   0.387E-03
     50 T=   794. E= -.17823735E+04 F= -.18270409E+04 E0= -.18270409E+04  EK= 0.44667E+02 SP= 0.00E+00 SK= 0.00E+00
 bond charge predicted
 prediction of wavefunctions
       N       E                     dE             d eps       ncg     rms          rms(c)
DAV:   1    -0.182637305881E+04    0.66786E+00   -0.18174E+01  3516   0.792E+00    0.381E+00
DAV:   2    -0.182692843619E+04   -0.55538E+00   -0.59426E+00  3396   0.240E+00    0.160E+00
DAV:   3    -0.182701027763E+04   -0.81841E-01   -0.86553E-01  6108   0.926E-01    0.128E+00
DAV:   4    -0.182701122094E+04   -0.94331E-03   -0.77968E-02  5784   0.279E-01    0.911E-01
DAV:   5    -0.182700936921E+04    0.18517E-02   -0.73569E-03  5820   0.867E-02    0.664E-01
DAV:   6    -0.182700815398E+04    0.12152E-02   -0.33368E-03  4764   0.524E-02    0.309E-01
DAV:   7    -0.182700821331E+04   -0.59333E-04   -0.29032E-03  4920   0.406E-02    0.111E-01
DAV:   8    -0.182700823080E+04   -0.17496E-04   -0.43761E-04  5592   0.182E-02    0.113E-01
DAV:   9    -0.182700825352E+04   -0.22710E-04   -0.54758E-05  3288   0.737E-03    0.886E-02
DAV:  10    -0.182700823030E+04    0.23220E-04   -0.14740E-05  1968   0.472E-03    0.596E-02
DAV:  11    -0.182700819368E+04    0.36611E-04   -0.91089E-05  4104   0.778E-03    0.305E-02
DAV:  12    -0.182700819508E+04   -0.13995E-05   -0.10208E-05  1896   0.373E-03
     51 T=   791. E= -.17825371E+04 F= -.18270082E+04 E0= -.18270082E+04  EK= 0.44471E+02 SP= 0.00E+00 SK= 0.00E+00
 bond charge predicted
 prediction of wavefunctions
       N       E                     dE             d eps       ncg     rms          rms(c)
DAV:   1    -0.182631423489E+04    0.69396E+00   -0.21061E+01  3492   0.797E+00    0.379E+00
DAV:   2    -0.182688667990E+04   -0.57245E+00   -0.60988E+00  3456   0.245E+00    0.158E+00
DAV:   3    -0.182696559712E+04   -0.78917E-01   -0.83713E-01  6156   0.912E-01    0.129E+00
DAV:   4    -0.182696655086E+04   -0.95374E-03   -0.74906E-02  5820   0.273E-01    0.914E-01
DAV:   5    -0.182696479210E+04    0.17588E-02   -0.68592E-03  5748   0.821E-02    0.672E-01
DAV:   6    -0.182696358212E+04    0.12100E-02   -0.35224E-03  4776   0.548E-02    0.309E-01
DAV:   7    -0.182696365749E+04   -0.75368E-04   -0.28795E-03  4980   0.414E-02    0.115E-01
DAV:   8    -0.182696367905E+04   -0.21564E-04   -0.39644E-04  5448   0.174E-02    0.111E-01
DAV:   9    -0.182696370317E+04   -0.24118E-04   -0.61703E-05  3420   0.754E-03    0.852E-02
DAV:  10    -0.182696367056E+04    0.32615E-04   -0.21450E-05  2088   0.566E-03    0.551E-02
DAV:  11    -0.182696364286E+04    0.27695E-04   -0.84959E-05  4020   0.766E-03    0.318E-02
DAV:  12    -0.182696364401E+04   -0.11456E-05   -0.75796E-06  1812   0.354E-03
     52 T=   789. E= -.17825873E+04 F= -.18269636E+04 E0= -.18269636E+04  EK= 0.44376E+02 SP= 0.00E+00 SK= 0.00E+00
 bond charge predicted
 prediction of wavefunctions
       N       E                     dE             d eps       ncg     rms          rms(c)
DAV:   1    -0.182630233136E+04    0.66131E+00   -0.18663E+01  3552   0.793E+00    0.389E+00
DAV:   2    -0.182686240180E+04   -0.56007E+00   -0.60036E+00  3444   0.240E+00    0.165E+00
DAV:   3    -0.182693646168E+04   -0.74060E-01   -0.79117E-01  6144   0.920E-01    0.128E+00
DAV:   4    -0.182693684136E+04   -0.37969E-03   -0.73656E-02  5856   0.261E-01    0.934E-01
DAV:   5    -0.182693461008E+04    0.22313E-02   -0.70782E-03  5808   0.837E-02    0.668E-01
DAV:   6    -0.182693339666E+04    0.12134E-02   -0.37142E-03  4716   0.543E-02    0.316E-01
DAV:   7    -0.182693345290E+04   -0.56240E-04   -0.27691E-03  4992   0.409E-02    0.106E-01
DAV:   8    -0.182693346798E+04   -0.15084E-04   -0.43826E-04  5460   0.181E-02    0.112E-01
DAV:   9    -0.182693348202E+04   -0.14037E-04   -0.37305E-05  2712   0.718E-03    0.936E-02
DAV:  10    -0.182693347629E+04    0.57290E-05   -0.17557E-05  1908   0.571E-03
     53 T=   792. E= -.17823857E+04 F= -.18269335E+04 E0= -.18269335E+04  EK= 0.44548E+02 SP= 0.00E+00 SK= 0.00E+00
 bond charge predicted
 prediction of wavefunctions
       N       E                     dE             d eps       ncg     rms          rms(c)
DAV:   1    -0.182634833346E+04    0.58515E+00   -0.18789E+01  3516   0.788E+00    0.388E+00
DAV:   2    -0.182689751828E+04   -0.54918E+00   -0.58742E+00  3468   0.238E+00    0.164E+00
DAV:   3    -0.182697039670E+04   -0.72878E-01   -0.78051E-01  6120   0.888E-01    0.130E+00
DAV:   4    -0.182697110260E+04   -0.70590E-03   -0.72654E-02  5856   0.266E-01    0.946E-01
DAV:   5    -0.182696915878E+04    0.19438E-02   -0.68171E-03  5748   0.824E-02    0.697E-01
DAV:   6    -0.182696779229E+04    0.13665E-02   -0.38036E-03  4812   0.561E-02    0.317E-01
DAV:   7    -0.182696783190E+04   -0.39612E-04   -0.28632E-03  4992   0.410E-02    0.117E-01
DAV:   8    -0.182696785890E+04   -0.26997E-04   -0.37726E-04  5472   0.170E-02    0.114E-01
DAV:   9    -0.182696788556E+04   -0.26662E-04   -0.60626E-05  3324   0.738E-03    0.862E-02
DAV:  10    -0.182696785398E+04    0.31584E-04   -0.19604E-05  2028   0.546E-03    0.558E-02
DAV:  11    -0.182696782289E+04    0.31086E-04   -0.82018E-05  3828   0.772E-03    0.316E-02
DAV:  12    -0.182696782380E+04   -0.91470E-06   -0.89235E-06  1836   0.388E-03
     54 T=   801. E= -.17819503E+04 F= -.18269678E+04 E0= -.18269678E+04  EK= 0.45018E+02 SP= 0.00E+00 SK= 0.00E+00
 bond charge predicted
 prediction of wavefunctions
       N       E                     dE             d eps       ncg     rms          rms(c)
DAV:   1    -0.182645949180E+04    0.50833E+00   -0.21049E+01  3480   0.815E+00    0.393E+00
DAV:   2    -0.182703339494E+04   -0.57390E+00   -0.61174E+00  3456   0.248E+00    0.163E+00
DAV:   3    -0.182710794281E+04   -0.74548E-01   -0.79125E-01  6084   0.914E-01    0.131E+00
DAV:   4    -0.182710854687E+04   -0.60406E-03   -0.73602E-02  5796   0.261E-01    0.931E-01
DAV:   5    -0.182710663519E+04    0.19117E-02   -0.71950E-03  5796   0.843E-02    0.668E-01
DAV:   6    -0.182710556465E+04    0.10705E-02   -0.33878E-03  4692   0.534E-02    0.308E-01
DAV:   7    -0.182710565506E+04   -0.90403E-04   -0.26261E-03  4980   0.403E-02    0.108E-01
DAV:   8    -0.182710566399E+04   -0.89318E-05   -0.42486E-04  5496   0.176E-02    0.109E-01
DAV:   9    -0.182710567865E+04   -0.14663E-04   -0.37621E-05  2628   0.728E-03    0.904E-02
DAV:  10    -0.182710566548E+04    0.13174E-04   -0.18986E-05  1896   0.582E-03    0.577E-02
DAV:  11    -0.182710563116E+04    0.34313E-04   -0.75287E-05  3900   0.810E-03    0.325E-02
DAV:  12    -0.182710563217E+04   -0.10009E-05   -0.10026E-05  1836   0.430E-03
     55 T=   806. E= -.17817848E+04 F= -.18271056E+04 E0= -.18271056E+04  EK= 0.45321E+02 SP= 0.00E+00 SK= 0.00E+00
 bond charge predicted
 prediction of wavefunctions
       N       E                     dE             d eps       ncg     rms          rms(c)
DAV:   1    -0.182666580259E+04    0.43983E+00   -0.18042E+01  3612   0.796E+00    0.378E+00
DAV:   2    -0.182721603660E+04   -0.55023E+00   -0.58711E+00  3456   0.240E+00    0.157E+00
DAV:   3    -0.182728484199E+04   -0.68805E-01   -0.73354E-01  6072   0.882E-01    0.127E+00
DAV:   4    -0.182728536944E+04   -0.52744E-03   -0.70071E-02  5892   0.252E-01    0.908E-01
DAV:   5    -0.182728325265E+04    0.21168E-02   -0.69408E-03  5784   0.826E-02    0.647E-01
DAV:   6    -0.182728218839E+04    0.10643E-02   -0.33584E-03  4776   0.521E-02    0.308E-01
DAV:   7    -0.182728223939E+04   -0.50999E-04   -0.25253E-03  4992   0.400E-02    0.968E-02
DAV:   8    -0.182728225141E+04   -0.12024E-04   -0.48178E-04  5280   0.194E-02    0.108E-01
DAV:   9    -0.182728225718E+04   -0.57690E-05   -0.32348E-05  2472   0.699E-03
     56 T=   802. E= -.17821620E+04 F= -.18272823E+04 E0= -.18272823E+04  EK= 0.45120E+02 SP= 0.00E+00 SK= 0.00E+00
 bond charge predicted
 prediction of wavefunctions
       N       E                     dE             d eps       ncg     rms          rms(c)
DAV:   1    -0.182686973085E+04    0.41252E+00   -0.16134E+01  3816   0.784E+00    0.379E+00
DAV:   2    -0.182740964138E+04   -0.53991E+00   -0.57950E+00  3456   0.238E+00    0.157E+00
DAV:   3    -0.182747424896E+04   -0.64608E-01   -0.69515E-01  6072   0.877E-01    0.124E+00
DAV:   4    -0.182747405481E+04    0.19415E-03   -0.68769E-02  5868   0.247E-01    0.891E-01
DAV:   5    -0.182747189391E+04    0.21609E-02   -0.70866E-03  5784   0.851E-02    0.624E-01
DAV:   6    -0.182747081487E+04    0.10790E-02   -0.36814E-03  4692   0.536E-02    0.277E-01
DAV:   7    -0.182747093263E+04   -0.11776E-03   -0.23869E-03  5004   0.380E-02    0.107E-01
DAV:   8    -0.182747093724E+04   -0.46053E-05   -0.35964E-04  5580   0.163E-02    0.110E-01
DAV:   9    -0.182747094830E+04   -0.11060E-04   -0.22063E-05  2160   0.628E-03    0.947E-02
DAV:  10    -0.182747094064E+04    0.76607E-05   -0.29210E-05  2352   0.653E-03
     57 T=   798. E= -.17826214E+04 F= -.18274709E+04 E0= -.18274709E+04  EK= 0.44850E+02 SP= 0.00E+00 SK= 0.00E+00
 bond charge predicted
 prediction of wavefunctions
       N       E                     dE             d eps       ncg     rms          rms(c)
DAV:   1    -0.182697578475E+04    0.49516E+00   -0.18281E+01  3684   0.797E+00    0.387E+00
DAV:   2    -0.182753659220E+04   -0.56081E+00   -0.59782E+00  3468   0.245E+00    0.161E+00
DAV:   3    -0.182760758330E+04   -0.70991E-01   -0.75286E-01  6108   0.881E-01    0.131E+00
DAV:   4    -0.182760814547E+04   -0.56217E-03   -0.71140E-02  5868   0.256E-01    0.953E-01
DAV:   5    -0.182760612041E+04    0.20251E-02   -0.67450E-03  5784   0.818E-02    0.704E-01
DAV:   6    -0.182760469836E+04    0.14221E-02   -0.40841E-03  4644   0.580E-02    0.306E-01
DAV:   7    -0.182760477685E+04   -0.78493E-04   -0.29286E-03  4860   0.418E-02    0.121E-01
DAV:   8    -0.182760480967E+04   -0.32825E-04   -0.38562E-04  5652   0.167E-02    0.116E-01
DAV:   9    -0.182760483710E+04   -0.27425E-04   -0.60448E-05  3120   0.713E-03    0.890E-02
DAV:  10    -0.182760479872E+04    0.38379E-04   -0.28213E-05  2292   0.616E-03    0.519E-02
DAV:  11    -0.182760476907E+04    0.29648E-04   -0.73510E-05  3684   0.730E-03    0.327E-02
DAV:  12    -0.182760476980E+04   -0.72690E-06   -0.70250E-06  1800   0.359E-03
     58 T=   789. E= -.17832154E+04 F= -.18276048E+04 E0= -.18276048E+04  EK= 0.44389E+02 SP= 0.00E+00 SK= 0.00E+00
 bond charge predicted
 prediction of wavefunctions
       N       E                     dE             d eps       ncg     rms          rms(c)
DAV:   1    -0.182705775267E+04    0.54702E+00   -0.18513E+01  3516   0.797E+00    0.387E+00
DAV:   2    -0.182761794362E+04   -0.56019E+00   -0.59847E+00  3516   0.241E+00    0.162E+00
DAV:   3    -0.182768962429E+04   -0.71681E-01   -0.76523E-01  6108   0.890E-01    0.128E+00
DAV:   4    -0.182769013013E+04   -0.50585E-03   -0.73279E-02  5916   0.262E-01    0.930E-01
DAV:   5    -0.182768816937E+04    0.19608E-02   -0.67094E-03  5796   0.799E-02    0.688E-01
DAV:   6    -0.182768676483E+04    0.14045E-02   -0.38356E-03  4740   0.562E-02    0.307E-01
DAV:   7    -0.182768680384E+04   -0.39011E-04   -0.28697E-03  4968   0.412E-02    0.118E-01
DAV:   8    -0.182768683978E+04   -0.35936E-04   -0.39714E-04  5580   0.169E-02    0.113E-01
DAV:   9    -0.182768686641E+04   -0.26638E-04   -0.58549E-05  3108   0.716E-03    0.865E-02
DAV:  10    -0.182768683372E+04    0.32697E-04   -0.19568E-05  1944   0.546E-03    0.578E-02
DAV:  11    -0.182768680085E+04    0.32864E-04   -0.86289E-05  3948   0.778E-03    0.323E-02
DAV:  12    -0.182768680185E+04   -0.99905E-06   -0.86373E-06  1848   0.379E-03
     59 T=   779. E= -.17838633E+04 F= -.18276868E+04 E0= -.18276868E+04  EK= 0.43824E+02 SP= 0.00E+00 SK= 0.00E+00
 bond charge predicted
 prediction of wavefunctions
       N       E                     dE             d eps       ncg     rms          rms(c)
DAV:   1    -0.182705751504E+04    0.62929E+00   -0.19744E+01  3528   0.795E+00    0.392E+00
DAV:   2    -0.182762219030E+04   -0.56468E+00   -0.60069E+00  3492   0.242E+00    0.164E+00
DAV:   3    -0.182770010140E+04   -0.77911E-01   -0.81933E-01  6144   0.891E-01    0.130E+00
DAV:   4    -0.182770105439E+04   -0.95299E-03   -0.74996E-02  5904   0.268E-01    0.932E-01
DAV:   5    -0.182769932608E+04    0.17283E-02   -0.71174E-03  5736   0.819E-02    0.671E-01
DAV:   6    -0.182769829222E+04    0.10339E-02   -0.33757E-03  4764   0.536E-02    0.294E-01
DAV:   7    -0.182769842602E+04   -0.13380E-03   -0.26366E-03  4992   0.396E-02    0.113E-01
DAV:   8    -0.182769843922E+04   -0.13201E-04   -0.40736E-04  5568   0.172E-02    0.113E-01
DAV:   9    -0.182769845963E+04   -0.20401E-04   -0.48879E-05  3096   0.699E-03    0.901E-02
DAV:  10    -0.182769843123E+04    0.28399E-04   -0.17499E-05  1956   0.506E-03    0.600E-02
DAV:  11    -0.182769839432E+04    0.36903E-04   -0.93076E-05  4008   0.798E-03    0.318E-02
DAV:  12    -0.182769839587E+04   -0.15438E-05   -0.11209E-05  1932   0.390E-03
     60 T=   775. E= -.17841457E+04 F= -.18276984E+04 E0= -.18276984E+04  EK= 0.43553E+02 SP= 0.00E+00 SK= 0.00E+00
 bond charge predicted
 prediction of wavefunctions
       N       E                     dE             d eps       ncg     rms          rms(c)
DAV:   1    -0.182697136995E+04    0.72702E+00   -0.18927E+01  3360   0.805E+00    0.377E+00
DAV:   2    -0.182753708870E+04   -0.56572E+00   -0.60595E+00  3504   0.245E+00    0.160E+00
DAV:   3    -0.182761694609E+04   -0.79857E-01   -0.84527E-01  6132   0.897E-01    0.126E+00
[...]
    485 T=   800. E= -.17822301E+04 F= -.18272029E+04 E0= -.18272029E+04  EK= 0.44973E+02 SP= 0.00E+00 SK= 0.00E+00
 bond charge predicted
 prediction of wavefunctions
       N       E                     dE             d eps       ncg     rms          rms(c)
DAV:   1    -0.182664297935E+04    0.55988E+00   -0.18214E+01  3360   0.823E+00    0.383E+00
DAV:   2    -0.182720678196E+04   -0.56380E+00   -0.60110E+00  3468   0.247E+00    0.158E+00
DAV:   3    -0.182728771300E+04   -0.80931E-01   -0.84491E-01  6156   0.902E-01    0.128E+00
DAV:   4    -0.182728873173E+04   -0.10187E-02   -0.76293E-02  5796   0.280E-01    0.894E-01
DAV:   5    -0.182728713087E+04    0.16009E-02   -0.72184E-03  5772   0.847E-02    0.642E-01
DAV:   6    -0.182728611157E+04    0.10193E-02   -0.32812E-03  4752   0.533E-02    0.277E-01
DAV:   7    -0.182728626370E+04   -0.15212E-03   -0.25913E-03  4920   0.394E-02    0.116E-01
DAV:   8    -0.182728627814E+04   -0.14446E-04   -0.40578E-04  5532   0.171E-02    0.113E-01
DAV:   9    -0.182728630390E+04   -0.25761E-04   -0.56580E-05  3372   0.736E-03    0.890E-02
DAV:  10    -0.182728626403E+04    0.39875E-04   -0.21532E-05  1992   0.564E-03    0.597E-02
DAV:  11    -0.182728622718E+04    0.36846E-04   -0.11562E-04  4308   0.852E-03    0.305E-02
DAV:  12    -0.182728622911E+04   -0.19268E-05   -0.11381E-05  1896   0.386E-03
    486 T=   801. E= -.17822254E+04 F= -.18272862E+04 E0= -.18272862E+04  EK= 0.45061E+02 SP= 0.00E+00 SK= 0.00E+00
 bond charge predicted
 prediction of wavefunctions
       N       E                     dE             d eps       ncg     rms          rms(c)
DAV:   1    -0.182666730730E+04    0.61892E+00   -0.18818E+01  3432   0.825E+00    0.389E+00
DAV:   2    -0.182724118887E+04   -0.57388E+00   -0.61308E+00  3456   0.248E+00    0.164E+00
DAV:   3    -0.182732238476E+04   -0.81196E-01   -0.85316E-01  6120   0.918E-01    0.129E+00
DAV:   4    -0.182732318669E+04   -0.80193E-03   -0.77898E-02  5868   0.281E-01    0.919E-01
DAV:   5    -0.182732129982E+04    0.18869E-02   -0.75874E-03  5736   0.848E-02    0.649E-01
DAV:   6    -0.182732027342E+04    0.10264E-02   -0.34224E-03  4788   0.542E-02    0.287E-01
DAV:   7    -0.182732040993E+04   -0.13651E-03   -0.25287E-03  5064   0.392E-02    0.114E-01
DAV:   8    -0.182732041648E+04   -0.65537E-05   -0.40873E-04  5580   0.178E-02    0.113E-01
DAV:   9    -0.182732042933E+04   -0.12843E-04   -0.27503E-05  2304   0.661E-03    0.954E-02
DAV:  10    -0.182732041624E+04    0.13088E-04   -0.16891E-05  1872   0.649E-03    0.631E-02
DAV:  11    -0.182732037372E+04    0.42517E-04   -0.89035E-05  4032   0.826E-03    0.328E-02
DAV:  12    -0.182732037306E+04    0.66325E-06   -0.12231E-05  1980   0.431E-03
    487 T=   804. E= -.17821279E+04 F= -.18273204E+04 E0= -.18273204E+04  EK= 0.45192E+02 SP= 0.00E+00 SK= 0.00E+00
 bond charge predicted
 prediction of wavefunctions
       N       E                     dE             d eps       ncg     rms          rms(c)
DAV:   1    -0.182665341450E+04    0.66696E+00   -0.20092E+01  3384   0.824E+00    0.381E+00
DAV:   2    -0.182724455024E+04   -0.59114E+00   -0.63256E+00  3444   0.253E+00    0.161E+00
DAV:   3    -0.182733160482E+04   -0.87055E-01   -0.91362E-01  6192   0.938E-01    0.128E+00
DAV:   4    -0.182733253490E+04   -0.93009E-03   -0.81285E-02  5736   0.292E-01    0.903E-01
DAV:   5    -0.182733076566E+04    0.17692E-02   -0.77600E-03  5880   0.877E-02    0.644E-01
DAV:   6    -0.182732966156E+04    0.11041E-02   -0.34134E-03  4728   0.551E-02    0.286E-01
DAV:   7    -0.182732981397E+04   -0.15241E-03   -0.29198E-03  4956   0.416E-02    0.116E-01
DAV:   8    -0.182732981814E+04   -0.41696E-05   -0.43252E-04  5496   0.179E-02    0.115E-01
DAV:   9    -0.182732984040E+04   -0.22254E-04   -0.54415E-05  3276   0.747E-03    0.915E-02
DAV:  10    -0.182732980749E+04    0.32907E-04   -0.18513E-05  1992   0.526E-03    0.621E-02
DAV:  11    -0.182732976868E+04    0.38806E-04   -0.11188E-04  4248   0.835E-03    0.305E-02
DAV:  12    -0.182732977000E+04   -0.13144E-05   -0.11843E-05  1944   0.380E-03
    488 T=   811. E= -.17817231E+04 F= -.18273298E+04 E0= -.18273298E+04  EK= 0.45607E+02 SP= 0.00E+00 SK= 0.00E+00
 bond charge predicted
 prediction of wavefunctions
       N       E                     dE             d eps       ncg     rms          rms(c)
DAV:   1    -0.182663873815E+04    0.69103E+00   -0.19766E+01  3468   0.828E+00    0.388E+00
DAV:   2    -0.182724051610E+04   -0.60178E+00   -0.64273E+00  3444   0.254E+00    0.164E+00
DAV:   3    -0.182732686555E+04   -0.86349E-01   -0.90709E-01  6180   0.944E-01    0.129E+00
DAV:   4    -0.182732777017E+04   -0.90462E-03   -0.81044E-02  5820   0.290E-01    0.923E-01
DAV:   5    -0.182732577862E+04    0.19916E-02   -0.79230E-03  5748   0.884E-02    0.652E-01
DAV:   6    -0.182732464390E+04    0.11347E-02   -0.38214E-03  4656   0.574E-02    0.280E-01
DAV:   7    -0.182732481405E+04   -0.17015E-03   -0.28398E-03  4944   0.412E-02    0.118E-01
DAV:   8    -0.182732482041E+04   -0.63584E-05   -0.41990E-04  5604   0.176E-02    0.119E-01
DAV:   9    -0.182732484150E+04   -0.21090E-04   -0.45695E-05  2952   0.719E-03    0.960E-02
DAV:  10    -0.182732480810E+04    0.33397E-04   -0.22027E-05  2136   0.601E-03    0.601E-02
DAV:  11    -0.182732476723E+04    0.40873E-04   -0.10556E-04  4056   0.817E-03    0.320E-02
DAV:  12    -0.182732476840E+04   -0.11687E-05   -0.11140E-05  1920   0.388E-03
    489 T=   814. E= -.17815776E+04 F= -.18273248E+04 E0= -.18273248E+04  EK= 0.45747E+02 SP= 0.00E+00 SK= 0.00E+00
 bond charge predicted
 prediction of wavefunctions
       N       E                     dE             d eps       ncg     rms          rms(c)
DAV:   1    -0.182662938223E+04    0.69538E+00   -0.19292E+01  3468   0.831E+00    0.369E+00
DAV:   2    -0.182721167309E+04   -0.58229E+00   -0.62053E+00  3456   0.250E+00    0.154E+00
DAV:   3    -0.182729375563E+04   -0.82083E-01   -0.85987E-01  6156   0.917E-01    0.123E+00
DAV:   4    -0.182729474049E+04   -0.98486E-03   -0.76734E-02  5820   0.284E-01    0.857E-01
DAV:   5    -0.182729302957E+04    0.17109E-02   -0.73983E-03  5712   0.851E-02    0.600E-01
DAV:   6    -0.182729216300E+04    0.86656E-03   -0.32286E-03  4740   0.535E-02    0.261E-01
DAV:   7    -0.182729231599E+04   -0.15298E-03   -0.22866E-03  5040   0.380E-02    0.109E-01
DAV:   8    -0.182729231566E+04    0.32215E-06   -0.38221E-04  5400   0.169E-02    0.110E-01
DAV:   9    -0.182729232652E+04   -0.10858E-04   -0.25472E-05  2208   0.682E-03    0.948E-02
DAV:  10    -0.182729231816E+04    0.83614E-05   -0.24002E-05  2136   0.674E-03
    490 T=   806. E= -.17819453E+04 F= -.18272923E+04 E0= -.18272923E+04  EK= 0.45347E+02 SP= 0.00E+00 SK= 0.00E+00
 bond charge predicted
 prediction of wavefunctions
       N       E                     dE             d eps       ncg     rms          rms(c)
DAV:   1    -0.182659204187E+04    0.70028E+00   -0.21310E+01  3456   0.835E+00    0.377E+00
DAV:   2    -0.182719158749E+04   -0.59955E+00   -0.63901E+00  3540   0.255E+00    0.157E+00
DAV:   3    -0.182728017917E+04   -0.88592E-01   -0.92481E-01  6180   0.923E-01    0.128E+00
DAV:   4    -0.182728137065E+04   -0.11915E-02   -0.80475E-02  5784   0.300E-01    0.884E-01
DAV:   5    -0.182727963062E+04    0.17400E-02   -0.78101E-03  5796   0.882E-02    0.616E-01
DAV:   6    -0.182727875373E+04    0.87689E-03   -0.34974E-03  4668   0.562E-02    0.263E-01
DAV:   7    -0.182727894210E+04   -0.18837E-03   -0.24081E-03  5064   0.391E-02    0.118E-01
DAV:   8    -0.182727894548E+04   -0.33728E-05   -0.37610E-04  5508   0.162E-02    0.115E-01
DAV:   9    -0.182727895841E+04   -0.12937E-04   -0.29997E-05  2412   0.685E-03    0.955E-02
DAV:  10    -0.182727893474E+04    0.23678E-04   -0.53473E-05  3408   0.728E-03    0.524E-02
DAV:  11    -0.182727890009E+04    0.34642E-04   -0.51398E-05  3180   0.642E-03    0.348E-02
DAV:  12    -0.182727889749E+04    0.26072E-05   -0.11476E-05  1836   0.398E-03
    491 T=   808. E= -.17818383E+04 F= -.18272789E+04 E0= -.18272789E+04  EK= 0.45441E+02 SP= 0.00E+00 SK= 0.00E+00
 bond charge predicted
 prediction of wavefunctions
       N       E                     dE             d eps       ncg     rms          rms(c)
DAV:   1    -0.182662100197E+04    0.65790E+00   -0.19583E+01  3456   0.833E+00    0.372E+00
DAV:   2    -0.182721296101E+04   -0.59196E+00   -0.63317E+00  3504   0.250E+00    0.158E+00
DAV:   3    -0.182729542195E+04   -0.82461E-01   -0.87327E-01  6132   0.925E-01    0.126E+00
DAV:   4    -0.182729620934E+04   -0.78739E-03   -0.77467E-02  5868   0.292E-01    0.891E-01
DAV:   5    -0.182729408499E+04    0.21244E-02   -0.75014E-03  5772   0.851E-02    0.623E-01
DAV:   6    -0.182729301072E+04    0.10743E-02   -0.38621E-03  4764   0.573E-02    0.275E-01
DAV:   7    -0.182729314226E+04   -0.13154E-03   -0.24625E-03  4992   0.389E-02    0.111E-01
DAV:   8    -0.182729315901E+04   -0.16748E-04   -0.39911E-04  5592   0.169E-02    0.113E-01
DAV:   9    -0.182729317024E+04   -0.11224E-04   -0.27493E-05  2340   0.693E-03    0.959E-02
DAV:  10    -0.182729315732E+04    0.12918E-04   -0.23594E-05  2112   0.646E-03    0.602E-02
DAV:  11    -0.182729311681E+04    0.40506E-04   -0.83558E-05  3780   0.840E-03    0.336E-02
DAV:  12    -0.182729311689E+04   -0.76485E-07   -0.10982E-05  1872   0.443E-03
    492 T=   810. E= -.17817463E+04 F= -.18272931E+04 E0= -.18272931E+04  EK= 0.45547E+02 SP= 0.00E+00 SK= 0.00E+00
 bond charge predicted
 prediction of wavefunctions
       N       E                     dE             d eps       ncg     rms          rms(c)
DAV:   1    -0.182668643104E+04    0.60669E+00   -0.21393E+01  3396   0.849E+00    0.373E+00
DAV:   2    -0.182727971034E+04   -0.59328E+00   -0.63114E+00  3504   0.253E+00    0.156E+00
DAV:   3    -0.182736165245E+04   -0.81942E-01   -0.86097E-01  6144   0.926E-01    0.127E+00
DAV:   4    -0.182736247116E+04   -0.81871E-03   -0.74539E-02  5796   0.282E-01    0.888E-01
DAV:   5    -0.182736072532E+04    0.17458E-02   -0.73364E-03  5784   0.845E-02    0.625E-01
DAV:   6    -0.182735978229E+04    0.94303E-03   -0.33650E-03  4728   0.547E-02    0.276E-01
DAV:   7    -0.182735993464E+04   -0.15234E-03   -0.24116E-03  4992   0.386E-02    0.114E-01
DAV:   8    -0.182735993878E+04   -0.41375E-05   -0.37515E-04  5472   0.163E-02    0.109E-01
DAV:   9    -0.182735995254E+04   -0.13762E-04   -0.27709E-05  2304   0.717E-03    0.919E-02
DAV:  10    -0.182735994008E+04    0.12453E-04   -0.27620E-05  2232   0.686E-03    0.553E-02
DAV:  11    -0.182735990324E+04    0.36848E-04   -0.76839E-05  3684   0.831E-03    0.311E-02
DAV:  12    -0.182735990357E+04   -0.33676E-06   -0.10510E-05  1872   0.441E-03
    493 T=   812. E= -.17816815E+04 F= -.18273599E+04 E0= -.18273599E+04  EK= 0.45678E+02 SP= 0.00E+00 SK= 0.00E+00
 bond charge predicted
 prediction of wavefunctions
       N       E                     dE             d eps       ncg     rms          rms(c)
DAV:   1    -0.182674047240E+04    0.61943E+00   -0.18188E+01  3480   0.824E+00    0.380E+00
DAV:   2    -0.182731914908E+04   -0.57868E+00   -0.62132E+00  3516   0.248E+00    0.163E+00
DAV:   3    -0.182739879378E+04   -0.79645E-01   -0.84776E-01  6120   0.919E-01    0.126E+00
DAV:   4    -0.182739897110E+04   -0.17731E-03   -0.76228E-02  5808   0.289E-01    0.912E-01
DAV:   5    -0.182739668008E+04    0.22910E-02   -0.77440E-03  5784   0.879E-02    0.642E-01
DAV:   6    -0.182739539648E+04    0.12836E-02   -0.39767E-03  4656   0.575E-02    0.287E-01
DAV:   7    -0.182739552638E+04   -0.12990E-03   -0.30519E-03  4968   0.422E-02    0.114E-01
DAV:   8    -0.182739553190E+04   -0.55214E-05   -0.45646E-04  5460   0.178E-02    0.116E-01
DAV:   9    -0.182739555257E+04   -0.20665E-04   -0.43416E-05  2952   0.774E-03    0.952E-02
DAV:  10    -0.182739553173E+04    0.20836E-04   -0.17281E-05  1980   0.578E-03    0.609E-02
DAV:  11    -0.182739548785E+04    0.43880E-04   -0.99248E-05  3960   0.854E-03    0.313E-02
DAV:  12    -0.182739548920E+04   -0.13469E-05   -0.13366E-05  1980   0.417E-03
    494 T=   823. E= -.17811471E+04 F= -.18273955E+04 E0= -.18273955E+04  EK= 0.46248E+02 SP= 0.00E+00 SK= 0.00E+00
 bond charge predicted
 prediction of wavefunctions
       N       E                     dE             d eps       ncg     rms          rms(c)
DAV:   1    -0.182669480063E+04    0.70069E+00   -0.19606E+01  3372   0.851E+00    0.383E+00
DAV:   2    -0.182729672202E+04   -0.60192E+00   -0.64465E+00  3516   0.253E+00    0.161E+00
DAV:   3    -0.182738221918E+04   -0.85497E-01   -0.90618E-01  6132   0.943E-01    0.130E+00
DAV:   4    -0.182738270123E+04   -0.48205E-03   -0.80253E-02  5796   0.300E-01    0.920E-01
DAV:   5    -0.182738055262E+04    0.21486E-02   -0.78193E-03  5796   0.882E-02    0.657E-01
DAV:   6    -0.182737923719E+04    0.13154E-02   -0.38744E-03  4620   0.579E-02    0.295E-01
DAV:   7    -0.182737936414E+04   -0.12695E-03   -0.32272E-03  5004   0.438E-02    0.117E-01
DAV:   8    -0.182737937874E+04   -0.14601E-04   -0.47264E-04  5532   0.178E-02    0.119E-01
DAV:   9    -0.182737940732E+04   -0.28584E-04   -0.63792E-05  3768   0.802E-03    0.953E-02
DAV:  10    -0.182737936928E+04    0.38043E-04   -0.19819E-05  1944   0.538E-03    0.650E-02
DAV:  11    -0.182737932714E+04    0.42139E-04   -0.12923E-04  4248   0.915E-03    0.327E-02
DAV:  12    -0.182737932875E+04   -0.16120E-05   -0.13230E-05  2016   0.397E-03
    495 T=   820. E= -.17812619E+04 F= -.18273793E+04 E0= -.18273793E+04  EK= 0.46117E+02 SP= 0.00E+00 SK= 0.00E+00
 bond charge predicted
 prediction of wavefunctions
       N       E                     dE             d eps       ncg     rms          rms(c)
DAV:   1    -0.182667403650E+04    0.70529E+00   -0.18786E+01  3432   0.837E+00    0.382E+00
DAV:   2    -0.182725038260E+04   -0.57635E+00   -0.61610E+00  3516   0.250E+00    0.160E+00
DAV:   3    -0.182732919505E+04   -0.78812E-01   -0.83172E-01  6096   0.903E-01    0.129E+00
DAV:   4    -0.182732969999E+04   -0.50494E-03   -0.74134E-02  5784   0.288E-01    0.915E-01
DAV:   5    -0.182732778446E+04    0.19155E-02   -0.72071E-03  5772   0.850E-02    0.662E-01
DAV:   6    -0.182732649123E+04    0.12932E-02   -0.37162E-03  4596   0.582E-02    0.287E-01
DAV:   7    -0.182732660891E+04   -0.11769E-03   -0.29758E-03  4944   0.429E-02    0.121E-01
DAV:   8    -0.182732662894E+04   -0.20026E-04   -0.40282E-04  5484   0.170E-02    0.117E-01
DAV:   9    -0.182732666108E+04   -0.32141E-04   -0.66755E-05  3684   0.779E-03    0.909E-02
DAV:  10    -0.182732661500E+04    0.46078E-04   -0.33004E-05  2664   0.614E-03    0.594E-02
DAV:  11    -0.182732658427E+04    0.30736E-04   -0.79952E-05  3588   0.698E-03    0.332E-02
DAV:  12    -0.182732658512E+04   -0.85510E-06   -0.82544E-06  1812   0.335E-03
    496 T=   809. E= -.17818268E+04 F= -.18273266E+04 E0= -.18273266E+04  EK= 0.45500E+02 SP= 0.00E+00 SK= 0.00E+00
 bond charge predicted
 prediction of wavefunctions
       N       E                     dE             d eps       ncg     rms          rms(c)
DAV:   1    -0.182660968726E+04    0.71690E+00   -0.19755E+01  3384   0.813E+00    0.384E+00
DAV:   2    -0.182719011277E+04   -0.58043E+00   -0.62079E+00  3504   0.251E+00    0.163E+00
DAV:   3    -0.182726862372E+04   -0.78511E-01   -0.83529E-01  6144   0.916E-01    0.128E+00
DAV:   4    -0.182726916149E+04   -0.53777E-03   -0.73545E-02  5796   0.284E-01    0.917E-01
DAV:   5    -0.182726706564E+04    0.20959E-02   -0.72836E-03  5808   0.851E-02    0.647E-01
DAV:   6    -0.182726593993E+04    0.11257E-02   -0.34932E-03  4800   0.566E-02    0.296E-01
DAV:   7    -0.182726601624E+04   -0.76312E-04   -0.26012E-03  4920   0.409E-02    0.108E-01
DAV:   8    -0.182726603001E+04   -0.13767E-04   -0.43528E-04  5424   0.177E-02    0.111E-01
DAV:   9    -0.182726603990E+04   -0.98882E-05   -0.26164E-05  2304   0.714E-03
    497 T=   806. E= -.17819537E+04 F= -.18272660E+04 E0= -.18272660E+04  EK= 0.45312E+02 SP= 0.00E+00 SK= 0.00E+00
 bond charge predicted
 prediction of wavefunctions
       N       E                     dE             d eps       ncg     rms          rms(c)
DAV:   1    -0.182649470921E+04    0.77132E+00   -0.20296E+01  3420   0.827E+00    0.385E+00
DAV:   2    -0.182707667098E+04   -0.58196E+00   -0.62206E+00  3504   0.251E+00    0.161E+00
DAV:   3    -0.182715763930E+04   -0.80968E-01   -0.85775E-01  6096   0.914E-01    0.130E+00
DAV:   4    -0.182715833775E+04   -0.69846E-03   -0.75579E-02  5724   0.292E-01    0.911E-01
DAV:   5    -0.182715638096E+04    0.19568E-02   -0.75849E-03  5892   0.870E-02    0.642E-01
DAV:   6    -0.182715528658E+04    0.10944E-02   -0.34420E-03  4740   0.565E-02    0.290E-01
DAV:   7    -0.182715540390E+04   -0.11732E-03   -0.27772E-03  4980   0.421E-02    0.112E-01
DAV:   8    -0.182715541014E+04   -0.62472E-05   -0.45681E-04  5340   0.180E-02    0.116E-01
DAV:   9    -0.182715542539E+04   -0.15245E-04   -0.37979E-05  2676   0.755E-03    0.980E-02
DAV:  10    -0.182715541135E+04    0.14040E-04   -0.52543E-05  3216   0.673E-03    0.578E-02
DAV:  11    -0.182715537219E+04    0.39164E-04   -0.59289E-05  3228   0.716E-03    0.359E-02
DAV:  12    -0.182715536945E+04    0.27322E-05   -0.15799E-05  1872   0.435E-03
    498 T=   801. E= -.17821095E+04 F= -.18271554E+04 E0= -.18271554E+04  EK= 0.45046E+02 SP= 0.00E+00 SK= 0.00E+00
 bond charge predicted
 prediction of wavefunctions
       N       E                     dE             d eps       ncg     rms          rms(c)
DAV:   1    -0.182636735118E+04    0.78802E+00   -0.18995E+01  3480   0.820E+00    0.382E+00
DAV:   2    -0.182694482996E+04   -0.57748E+00   -0.61687E+00  3528   0.250E+00    0.162E+00
DAV:   3    -0.182702275613E+04   -0.77926E-01   -0.82863E-01  6120   0.914E-01    0.129E+00
DAV:   4    -0.182702319492E+04   -0.43879E-03   -0.73664E-02  5904   0.286E-01    0.921E-01
DAV:   5    -0.182702099469E+04    0.22002E-02   -0.69069E-03  5772   0.813E-02    0.659E-01
DAV:   6    -0.182701977886E+04    0.12158E-02   -0.37091E-03  4776   0.566E-02    0.296E-01
DAV:   7    -0.182701985327E+04   -0.74411E-04   -0.26115E-03  4944   0.398E-02    0.111E-01
DAV:   8    -0.182701987624E+04   -0.22973E-04   -0.39770E-04  5616   0.168E-02    0.111E-01
DAV:   9    -0.182701988908E+04   -0.12833E-04   -0.25661E-05  2172   0.709E-03    0.944E-02
DAV:  10    -0.182701989003E+04   -0.95647E-06   -0.56566E-05  3360   0.672E-03
    499 T=   797. E= -.17822209E+04 F= -.18270199E+04 E0= -.18270199E+04  EK= 0.44799E+02 SP= 0.00E+00 SK= 0.00E+00
 bond charge predicted
 prediction of wavefunctions
       N       E                     dE             d eps       ncg     rms          rms(c)
DAV:   1    -0.182622486536E+04    0.79502E+00   -0.19828E+01  3504   0.814E+00    0.388E+00
DAV:   2    -0.182680096686E+04   -0.57610E+00   -0.61376E+00  3540   0.249E+00    0.164E+00
DAV:   3    -0.182687565909E+04   -0.74692E-01   -0.79870E-01  6108   0.898E-01    0.130E+00
DAV:   4    -0.182687602656E+04   -0.36747E-03   -0.71107E-02  5808   0.278E-01    0.928E-01
DAV:   5    -0.182687407339E+04    0.19532E-02   -0.68376E-03  5796   0.809E-02    0.671E-01
DAV:   6    -0.182687289201E+04    0.11814E-02   -0.34796E-03  4836   0.555E-02    0.301E-01
DAV:   7    -0.182687295986E+04   -0.67852E-04   -0.26057E-03  4992   0.399E-02    0.114E-01
DAV:   8    -0.182687297819E+04   -0.18327E-04   -0.38715E-04  5496   0.167E-02    0.111E-01
DAV:   9    -0.182687299637E+04   -0.18185E-04   -0.40025E-05  2892   0.721E-03    0.886E-02
DAV:  10    -0.182687297692E+04    0.19457E-04   -0.17921E-05  1908   0.597E-03    0.553E-02
DAV:  11    -0.182687294436E+04    0.32556E-04   -0.81321E-05  3936   0.794E-03    0.305E-02
DAV:  12    -0.182687294540E+04   -0.10408E-05   -0.98450E-06  1884   0.395E-03
    500 T=   798. E= -.17819853E+04 F= -.18268729E+04 E0= -.18268729E+04  EK= 0.44888E+02 SP= 0.00E+00 SK= 0.00E+00
 bond charge predicted
 prediction of wavefunctions
 wavefunctions rotated
