 running on  120 total cores
 distrk:  each k-point on  120 cores,    1 groups
 distr:  one band on   20 cores,    6 groups
 vasp.6.3.2 27Jun22 (build Sep 05 2022 15:05:53) gamma-only                     
  
 POSCAR found type information on POSCAR LiScCl
 POSCAR found :  3 types and     432 ions
 Reading from existing POTCAR
 scaLAPACK will be used
 Reading from existing POTCAR
 -----------------------------------------------------------------------------
|                                                                             |
|               ----> ADVICE to this user running VASP <----                  |
|                                                                             |
|     You enforced a specific xc type in the INCAR file but a different       |
|     type was found in the POTCAR file.                                      |
|     I HOPE YOU KNOW WHAT YOU ARE DOING!                                     |
|                                                                             |
 -----------------------------------------------------------------------------

 LDA part: xc-table for Pade appr. of Perdew
 POSCAR, INCAR and KPOINTS ok, starting setup
 FFT: planning ... GRIDC
 FFT: planning ... GRID_SOFT
 FFT: planning ... GRID
 WAVECAR not read
 prediction of wavefunctions initialized - no I/O
 entering main loop
       N       E                     dE             d eps       ncg     rms          rms(c)
DAV:   1     0.414914630565E+05    0.41491E+05   -0.12009E+06  3192   0.166E+03
DAV:   2     0.644713638406E+04   -0.35044E+05   -0.34037E+05  3852   0.476E+02
DAV:   3    -0.570707665796E+03   -0.70178E+04   -0.63647E+04  4296   0.208E+02
DAV:   4    -0.182611569516E+04   -0.12554E+04   -0.12472E+04  5232   0.987E+01
DAV:   5    -0.193786600151E+04   -0.11175E+03   -0.11142E+03  5748   0.403E+01    0.740E+01
DAV:   6    -0.184313713091E+04    0.94729E+02   -0.52028E+02  5772   0.286E+01    0.388E+01
DAV:   7    -0.184597155457E+04   -0.28344E+01   -0.12899E+02  6108   0.108E+01    0.184E+01
DAV:   8    -0.184720659421E+04   -0.12350E+01   -0.23789E+01  5472   0.579E+00    0.909E+00
DAV:   9    -0.184723746861E+04   -0.30874E-01   -0.33254E+00  5748   0.255E+00    0.412E+00
DAV:  10    -0.184724873335E+04   -0.11265E-01   -0.11416E+00  5640   0.195E+00    0.278E+00
DAV:  11    -0.184719737764E+04    0.51356E-01   -0.35522E-01  5556   0.106E+00    0.704E-01
DAV:  12    -0.184720843074E+04   -0.11053E-01   -0.13212E-01  6264   0.400E-01    0.635E-01
DAV:  13    -0.184721035294E+04   -0.19222E-02   -0.18451E-02  5628   0.191E-01    0.278E-01
DAV:  14    -0.184721156347E+04   -0.12105E-02   -0.70425E-03  5832   0.823E-02    0.162E-01
DAV:  15    -0.184721188588E+04   -0.32241E-03   -0.15700E-03  4560   0.507E-02    0.702E-02
DAV:  16    -0.184721199666E+04   -0.11078E-03   -0.10742E-03  4692   0.336E-02    0.463E-02
DAV:  17    -0.184721206520E+04   -0.68536E-04   -0.69930E-04  5064   0.209E-02    0.479E-02
DAV:  18    -0.184721206778E+04   -0.25883E-05   -0.42941E-05  2904   0.752E-03
      1 T=   526. E= -.18176420E+04 F= -.18472121E+04 E0= -.18472121E+04  EK= 0.29570E+02 SP= 0.00E+00 SK= 0.00E+00
 bond charge predicted
       N       E                     dE             d eps       ncg     rms          rms(c)
DAV:   1    -0.184500527604E+04    0.22068E+01   -0.43040E+02  3288   0.218E+01    0.576E+00
DAV:   2    -0.184686318400E+04   -0.18579E+01   -0.20437E+01  4872   0.514E+00    0.250E+00
DAV:   3    -0.184692189793E+04   -0.58714E-01   -0.14176E+00  5688   0.111E+00    0.186E+00
DAV:   4    -0.184692804397E+04   -0.61460E-02   -0.12180E-01  5964   0.384E-01    0.962E-01
DAV:   5    -0.184691968588E+04    0.83581E-02   -0.39327E-02  4776   0.181E-01    0.581E-01
DAV:   6    -0.184692039270E+04   -0.70682E-03   -0.21874E-02  4776   0.126E-01    0.206E-01
DAV:   7    -0.184692060997E+04   -0.21727E-03   -0.65476E-03  4812   0.632E-02    0.139E-01
DAV:   8    -0.184692065942E+04   -0.49453E-04   -0.11573E-03  4488   0.294E-02    0.586E-02
DAV:   9    -0.184692066790E+04   -0.84730E-05   -0.29077E-04  5520   0.181E-02    0.316E-02
DAV:  10    -0.184692066991E+04   -0.20170E-05   -0.96800E-05  4596   0.146E-02
      2 T=   526. E= -.18173375E+04 F= -.18469207E+04 E0= -.18469207E+04  EK= 0.29583E+02 SP= 0.00E+00 SK= 0.00E+00
 bond charge predicted
 prediction of wavefunctions
       N       E                     dE             d eps       ncg     rms          rms(c)
DAV:   1    -0.184604919762E+04    0.87147E+00   -0.25957E+01  3432   0.764E+00    0.370E+00
DAV:   2    -0.184655271184E+04   -0.50351E+00   -0.54440E+00  3552   0.238E+00    0.162E+00
DAV:   3    -0.184662811771E+04   -0.75406E-01   -0.80721E-01  6144   0.915E-01    0.125E+00
DAV:   4    -0.184662857449E+04   -0.45677E-03   -0.74694E-02  5880   0.283E-01    0.911E-01
DAV:   5    -0.184662619501E+04    0.23795E-02   -0.74958E-03  5796   0.867E-02    0.628E-01
DAV:   6    -0.184662509457E+04    0.11004E-02   -0.42217E-03  4704   0.617E-02    0.281E-01
DAV:   7    -0.184662521862E+04   -0.12405E-03   -0.25302E-03  4896   0.423E-02    0.111E-01
DAV:   8    -0.184662522824E+04   -0.96210E-05   -0.49997E-04  5364   0.187E-02    0.116E-01
DAV:   9    -0.184662523509E+04   -0.68503E-05   -0.34712E-05  2568   0.738E-03
      3 T=   528. E= -.18169284E+04 F= -.18466252E+04 E0= -.18466252E+04  EK= 0.29697E+02 SP= 0.00E+00 SK= 0.00E+00
 bond charge predicted
 prediction of wavefunctions
       N       E                     dE             d eps       ncg     rms          rms(c)
DAV:   1    -0.184574221780E+04    0.88301E+00   -0.22192E+01  3432   0.752E+00    0.354E+00
DAV:   2    -0.184622124896E+04   -0.47903E+00   -0.52121E+00  3444   0.227E+00    0.154E+00
DAV:   3    -0.184628987973E+04   -0.68631E-01   -0.74606E-01  6132   0.897E-01    0.119E+00
DAV:   4    -0.184628995573E+04   -0.76000E-04   -0.70297E-02  5952   0.273E-01    0.861E-01
DAV:   5    -0.184628737091E+04    0.25848E-02   -0.71194E-03  5760   0.816E-02    0.590E-01
DAV:   6    -0.184628624596E+04    0.11249E-02   -0.42683E-03  4788   0.601E-02    0.273E-01
DAV:   7    -0.184628631600E+04   -0.70037E-04   -0.22945E-03  5040   0.407E-02    0.101E-01
DAV:   8    -0.184628632195E+04   -0.59460E-05   -0.46448E-04  5172   0.180E-02    0.110E-01
DAV:   9    -0.184628632492E+04   -0.29707E-05   -0.27526E-05  2352   0.703E-03
      4 T=   530. E= -.18164582E+04 F= -.18462863E+04 E0= -.18462863E+04  EK= 0.29828E+02 SP= 0.00E+00 SK= 0.00E+00
 bond charge predicted
 prediction of wavefunctions
       N       E                     dE             d eps       ncg     rms          rms(c)
DAV:   1    -0.184537109410E+04    0.91523E+00   -0.21989E+01  3444   0.736E+00    0.348E+00
DAV:   2    -0.184584148949E+04   -0.47040E+00   -0.51160E+00  3468   0.226E+00    0.153E+00
DAV:   3    -0.184590910742E+04   -0.67618E-01   -0.73698E-01  6108   0.885E-01    0.117E+00
DAV:   4    -0.184590913086E+04   -0.23443E-04   -0.69216E-02  5808   0.272E-01    0.852E-01
DAV:   5    -0.184590650365E+04    0.26272E-02   -0.73776E-03  5880   0.853E-02    0.580E-01
DAV:   6    -0.184590538591E+04    0.11177E-02   -0.43348E-03  4716   0.604E-02    0.266E-01
DAV:   7    -0.184590546354E+04   -0.77625E-04   -0.22208E-03  5052   0.396E-02    0.105E-01
DAV:   8    -0.184590546845E+04   -0.49133E-05   -0.41748E-04  5136   0.174E-02    0.110E-01
DAV:   9    -0.184590547376E+04   -0.53058E-05   -0.27602E-05  2280   0.692E-03
      5 T=   527. E= -.18162485E+04 F= -.18459055E+04 E0= -.18459055E+04  EK= 0.29657E+02 SP= 0.00E+00 SK= 0.00E+00
 bond charge predicted
 prediction of wavefunctions
       N       E                     dE             d eps       ncg     rms          rms(c)
DAV:   1    -0.184496435922E+04    0.94111E+00   -0.23661E+01  3432   0.730E+00    0.351E+00
DAV:   2    -0.184544133479E+04   -0.47698E+00   -0.51954E+00  3492   0.232E+00    0.152E+00
DAV:   3    -0.184550841515E+04   -0.67080E-01   -0.73165E-01  6084   0.891E-01    0.120E+00
DAV:   4    -0.184550845178E+04   -0.36623E-04   -0.68833E-02  5808   0.270E-01    0.864E-01
DAV:   5    -0.184550570699E+04    0.27448E-02   -0.76019E-03  5808   0.872E-02    0.580E-01
DAV:   6    -0.184550471993E+04    0.98706E-03   -0.42878E-03  4728   0.598E-02    0.274E-01
DAV:   7    -0.184550479150E+04   -0.71568E-04   -0.19233E-03  5040   0.376E-02    0.107E-01
DAV:   8    -0.184550479554E+04   -0.40434E-05   -0.37776E-04  5316   0.165E-02    0.102E-01
DAV:   9    -0.184550479773E+04   -0.21870E-05   -0.25586E-05  2340   0.673E-03
      6 T=   514. E= -.18165927E+04 F= -.18455048E+04 E0= -.18455048E+04  EK= 0.28912E+02 SP= 0.00E+00 SK= 0.00E+00
 bond charge predicted
 prediction of wavefunctions
       N       E                     dE             d eps       ncg     rms          rms(c)
DAV:   1    -0.184459761826E+04    0.90718E+00   -0.22184E+01  3408   0.717E+00    0.356E+00
DAV:   2    -0.184506031702E+04   -0.46270E+00   -0.50355E+00  3468   0.222E+00    0.157E+00
DAV:   3    -0.184512680275E+04   -0.66486E-01   -0.72484E-01  6108   0.882E-01    0.119E+00
DAV:   4    -0.184512677044E+04    0.32312E-04   -0.68267E-02  5868   0.267E-01    0.877E-01
DAV:   5    -0.184512412424E+04    0.26462E-02   -0.72638E-03  5760   0.835E-02    0.597E-01
DAV:   6    -0.184512303001E+04    0.10942E-02   -0.42530E-03  4728   0.594E-02    0.279E-01
DAV:   7    -0.184512309329E+04   -0.63273E-04   -0.21349E-03  5040   0.391E-02    0.104E-01
DAV:   8    -0.184512309872E+04   -0.54304E-05   -0.38425E-04  5184   0.169E-02    0.107E-01
DAV:   9    -0.184512310160E+04   -0.28800E-05   -0.23932E-05  2184   0.661E-03
      7 T=   501. E= -.18169662E+04 F= -.18451231E+04 E0= -.18451231E+04  EK= 0.28157E+02 SP= 0.00E+00 SK= 0.00E+00
 bond charge predicted
 prediction of wavefunctions
       N       E                     dE             d eps       ncg     rms          rms(c)
DAV:   1    -0.184429215764E+04    0.83094E+00   -0.21989E+01  3324   0.709E+00    0.339E+00
DAV:   2    -0.184472958027E+04   -0.43742E+00   -0.47419E+00  3468   0.217E+00    0.148E+00
DAV:   3    -0.184479014902E+04   -0.60569E-01   -0.66267E-01  6072   0.857E-01    0.113E+00
DAV:   4    -0.184479029016E+04   -0.14114E-03   -0.61988E-02  5904   0.249E-01    0.831E-01
DAV:   5    -0.184478798672E+04    0.23034E-02   -0.65428E-03  5784   0.794E-02    0.574E-01
DAV:   6    -0.184478700741E+04    0.97931E-03   -0.36653E-03  4764   0.548E-02    0.269E-01
DAV:   7    -0.184478705913E+04   -0.51722E-04   -0.20000E-03  5064   0.369E-02    0.928E-02
DAV:   8    -0.184478706152E+04   -0.23874E-05   -0.36498E-04  5280   0.162E-02    0.987E-02
DAV:   9    -0.184478706438E+04   -0.28603E-05   -0.24670E-05  2340   0.658E-03
      8 T=   492. E= -.18171219E+04 F= -.18447871E+04 E0= -.18447871E+04  EK= 0.27665E+02 SP= 0.00E+00 SK= 0.00E+00
 bond charge predicted
 prediction of wavefunctions
       N       E                     dE             d eps       ncg     rms          rms(c)
DAV:   1    -0.184405482438E+04    0.73224E+00   -0.22694E+01  3324   0.707E+00    0.350E+00
DAV:   2    -0.184450013216E+04   -0.44531E+00   -0.48375E+00  3468   0.219E+00    0.154E+00
DAV:   3    -0.184456221941E+04   -0.62087E-01   -0.68000E-01  6084   0.864E-01    0.116E+00
DAV:   4    -0.184456220986E+04    0.95511E-05   -0.64673E-02  5892   0.259E-01    0.860E-01
DAV:   5    -0.184455962551E+04    0.25844E-02   -0.69513E-03  5808   0.822E-02    0.583E-01
DAV:   6    -0.184455863287E+04    0.99264E-03   -0.41496E-03  4740   0.586E-02    0.272E-01
DAV:   7    -0.184455868593E+04   -0.53064E-04   -0.18513E-03  4956   0.374E-02    0.103E-01
DAV:   8    -0.184455869799E+04   -0.12054E-04   -0.36865E-04  5088   0.165E-02    0.104E-01
DAV:   9    -0.184455870005E+04   -0.20631E-05   -0.22638E-05  2256   0.627E-03
      9 T=   488. E= -.18171193E+04 F= -.18445587E+04 E0= -.18445587E+04  EK= 0.27439E+02 SP= 0.00E+00 SK= 0.00E+00
 bond charge predicted
 prediction of wavefunctions
       N       E                     dE             d eps       ncg     rms          rms(c)
DAV:   1    -0.184391377414E+04    0.64492E+00   -0.23666E+01  3372   0.700E+00    0.356E+00
DAV:   2    -0.184436724762E+04   -0.45347E+00   -0.49056E+00  3480   0.219E+00    0.156E+00
DAV:   3    -0.184443110239E+04   -0.63855E-01   -0.69773E-01  6084   0.862E-01    0.119E+00
DAV:   4    -0.184443127684E+04   -0.17445E-03   -0.65319E-02  5904   0.259E-01    0.889E-01
DAV:   5    -0.184442873378E+04    0.25431E-02   -0.68863E-03  5856   0.801E-02    0.614E-01
DAV:   6    -0.184442762463E+04    0.11092E-02   -0.41813E-03  4800   0.586E-02    0.285E-01
DAV:   7    -0.184442767702E+04   -0.52389E-04   -0.21511E-03  5088   0.390E-02    0.992E-02
DAV:   8    -0.184442768425E+04   -0.72339E-05   -0.39813E-04  5184   0.174E-02    0.106E-01
DAV:   9    -0.184442768833E+04   -0.40846E-05   -0.26154E-05  2328   0.652E-03
     10 T=   489. E= -.18169295E+04 F= -.18444277E+04 E0= -.18444277E+04  EK= 0.27498E+02 SP= 0.00E+00 SK= 0.00E+00
 bond charge predicted
 prediction of wavefunctions
       N       E                     dE             d eps       ncg     rms          rms(c)
DAV:   1    -0.184378569237E+04    0.64199E+00   -0.24396E+01  3336   0.725E+00    0.358E+00
DAV:   2    -0.184425631912E+04   -0.47063E+00   -0.50922E+00  3504   0.221E+00    0.158E+00
DAV:   3    -0.184432334232E+04   -0.67023E-01   -0.72916E-01  6132   0.877E-01    0.118E+00
DAV:   4    -0.184432358686E+04   -0.24454E-03   -0.68317E-02  5892   0.267E-01    0.881E-01
DAV:   5    -0.184432141542E+04    0.21714E-02   -0.67138E-03  5736   0.797E-02    0.626E-01
DAV:   6    -0.184432014935E+04    0.12661E-02   -0.43408E-03  4644   0.601E-02    0.270E-01
DAV:   7    -0.184432026281E+04   -0.11346E-03   -0.25705E-03  4980   0.408E-02    0.111E-01
DAV:   8    -0.184432026872E+04   -0.59009E-05   -0.32582E-04  5484   0.156E-02    0.115E-01
DAV:   9    -0.184432028379E+04   -0.15071E-04   -0.26957E-05  2076   0.637E-03    0.924E-02
DAV:  10    -0.184432026813E+04    0.15660E-04   -0.70022E-05  3588   0.797E-03    0.487E-02
DAV:  11    -0.184432023594E+04    0.32185E-04   -0.25218E-05  1992   0.587E-03    0.362E-02
DAV:  12    -0.184432022675E+04    0.91886E-05   -0.19123E-05  1812   0.717E-03
     11 T=   493. E= -.18166029E+04 F= -.18443202E+04 E0= -.18443202E+04  EK= 0.27717E+02 SP= 0.00E+00 SK= 0.00E+00
 bond charge predicted
 prediction of wavefunctions
       N       E                     dE             d eps       ncg     rms          rms(c)
DAV:   1    -0.184374213836E+04    0.57810E+00   -0.24947E+01  3312   0.738E+00    0.351E+00
DAV:   2    -0.184422279463E+04   -0.48066E+00   -0.51913E+00  3420   0.228E+00    0.154E+00
DAV:   3    -0.184429212405E+04   -0.69329E-01   -0.75161E-01  6108   0.898E-01    0.118E+00
DAV:   4    -0.184429243737E+04   -0.31332E-03   -0.69450E-02  5880   0.268E-01    0.868E-01
DAV:   5    -0.184429001140E+04    0.24260E-02   -0.70882E-03  5844   0.819E-02    0.602E-01
DAV:   6    -0.184428896459E+04    0.10468E-02   -0.40481E-03  4776   0.586E-02    0.277E-01
DAV:   7    -0.184428904328E+04   -0.78682E-04   -0.22248E-03  5004   0.397E-02    0.987E-02
DAV:   8    -0.184428905142E+04   -0.81496E-05   -0.40030E-04  5256   0.178E-02    0.108E-01
DAV:   9    -0.184428905502E+04   -0.35907E-05   -0.22970E-05  2160   0.646E-03
     12 T=   498. E= -.18162670E+04 F= -.18442891E+04 E0= -.18442891E+04  EK= 0.28022E+02 SP= 0.00E+00 SK= 0.00E+00
 bond charge predicted
 prediction of wavefunctions
       N       E                     dE             d eps       ncg     rms          rms(c)
DAV:   1    -0.184378192703E+04    0.50712E+00   -0.22661E+01  3336   0.716E+00    0.353E+00
DAV:   2    -0.184425877616E+04   -0.47685E+00   -0.51694E+00  3504   0.224E+00    0.156E+00
DAV:   3    -0.184432664289E+04   -0.67867E-01   -0.73984E-01  6108   0.885E-01    0.117E+00
DAV:   4    -0.184432682737E+04   -0.18448E-03   -0.70004E-02  5856   0.269E-01    0.867E-01
DAV:   5    -0.184432438314E+04    0.24442E-02   -0.71804E-03  5772   0.817E-02    0.598E-01
DAV:   6    -0.184432322147E+04    0.11617E-02   -0.42282E-03  4680   0.593E-02    0.272E-01
DAV:   7    -0.184432331521E+04   -0.93740E-04   -0.24898E-03  5064   0.410E-02    0.103E-01
DAV:   8    -0.184432331501E+04    0.20309E-06   -0.40663E-04  5172   0.177E-02    0.114E-01
DAV:   9    -0.184432332296E+04   -0.79453E-05   -0.28452E-05  2400   0.675E-03
     13 T=   505. E= -.18159069E+04 F= -.18443233E+04 E0= -.18443233E+04  EK= 0.28416E+02 SP= 0.00E+00 SK= 0.00E+00
 bond charge predicted
 prediction of wavefunctions
       N       E                     dE             d eps       ncg     rms          rms(c)
DAV:   1    -0.184383029702E+04    0.49302E+00   -0.22423E+01  3336   0.728E+00    0.344E+00
DAV:   2    -0.184431091985E+04   -0.48062E+00   -0.52023E+00  3504   0.223E+00    0.152E+00
DAV:   3    -0.184437817161E+04   -0.67252E-01   -0.73406E-01  6084   0.887E-01    0.115E+00
DAV:   4    -0.184437843442E+04   -0.26281E-03   -0.69070E-02  6012   0.264E-01    0.855E-01
DAV:   5    -0.184437583795E+04    0.25965E-02   -0.68877E-03  5796   0.797E-02    0.596E-01
DAV:   6    -0.184437460636E+04    0.12316E-02   -0.42434E-03  4776   0.597E-02    0.279E-01
DAV:   7    -0.184437464060E+04   -0.34238E-04   -0.24663E-03  4980   0.418E-02    0.957E-02
DAV:   8    -0.184437465423E+04   -0.13627E-04   -0.45430E-04  5088   0.185E-02    0.110E-01
DAV:   9    -0.184437465762E+04   -0.33920E-05   -0.28241E-05  2316   0.683E-03
     14 T=   512. E= -.18155708E+04 F= -.18443747E+04 E0= -.18443747E+04  EK= 0.28804E+02 SP= 0.00E+00 SK= 0.00E+00
 bond charge predicted
 prediction of wavefunctions
       N       E                     dE             d eps       ncg     rms          rms(c)
DAV:   1    -0.184391236159E+04    0.46229E+00   -0.21370E+01  3348   0.725E+00    0.359E+00
DAV:   2    -0.184440192134E+04   -0.48956E+00   -0.53099E+00  3492   0.226E+00    0.159E+00
DAV:   3    -0.184447200200E+04   -0.70081E-01   -0.76342E-01  6096   0.891E-01    0.118E+00
DAV:   4    -0.184447211826E+04   -0.11626E-03   -0.72375E-02  5904   0.276E-01    0.885E-01
DAV:   5    -0.184446936351E+04    0.27548E-02   -0.76288E-03  5784   0.850E-02    0.599E-01
DAV:   6    -0.184446818144E+04    0.11821E-02   -0.44946E-03  4788   0.601E-02    0.272E-01
DAV:   7    -0.184446825727E+04   -0.75835E-04   -0.23219E-03  5052   0.395E-02    0.106E-01
DAV:   8    -0.184446826216E+04   -0.48905E-05   -0.38942E-04  5352   0.171E-02    0.112E-01
DAV:   9    -0.184446826712E+04   -0.49581E-05   -0.22190E-05  2136   0.646E-03
     15 T=   514. E= -.18155899E+04 F= -.18444683E+04 E0= -.18444683E+04  EK= 0.28878E+02 SP= 0.00E+00 SK= 0.00E+00
 bond charge predicted
 prediction of wavefunctions
       N       E                     dE             d eps       ncg     rms          rms(c)
DAV:   1    -0.184403789641E+04    0.43037E+00   -0.21719E+01  3288   0.730E+00    0.339E+00
DAV:   2    -0.184451962307E+04   -0.48173E+00   -0.52259E+00  3468   0.226E+00    0.149E+00
DAV:   3    -0.184458818037E+04   -0.68557E-01   -0.74615E-01  6072   0.882E-01    0.115E+00
DAV:   4    -0.184458848390E+04   -0.30354E-03   -0.69965E-02  5820   0.269E-01    0.839E-01
DAV:   5    -0.184458608796E+04    0.23959E-02   -0.69238E-03  5868   0.816E-02    0.592E-01
DAV:   6    -0.184458473250E+04    0.13555E-02   -0.43260E-03  4716   0.603E-02    0.265E-01
DAV:   7    -0.184458480555E+04   -0.73050E-04   -0.28076E-03  5028   0.432E-02    0.103E-01
DAV:   8    -0.184458481469E+04   -0.91357E-05   -0.45602E-04  5220   0.180E-02    0.114E-01
DAV:   9    -0.184458482766E+04   -0.12975E-04   -0.36250E-05  2568   0.709E-03    0.956E-02
DAV:  10    -0.184458481589E+04    0.11779E-04   -0.30494E-05  2256   0.644E-03    0.636E-02
DAV:  11    -0.184458478349E+04    0.32398E-04   -0.71621E-05  3732   0.807E-03    0.384E-02
DAV:  12    -0.184458478383E+04   -0.34281E-06   -0.10381E-05  1800   0.435E-03
     16 T=   511. E= -.18158666E+04 F= -.18445848E+04 E0= -.18445848E+04  EK= 0.28718E+02 SP= 0.00E+00 SK= 0.00E+00
 bond charge predicted
 prediction of wavefunctions
       N       E                     dE             d eps       ncg     rms          rms(c)
DAV:   1    -0.184413173554E+04    0.45305E+00   -0.22668E+01  3312   0.732E+00    0.349E+00
DAV:   2    -0.184461303117E+04   -0.48130E+00   -0.52028E+00  3516   0.222E+00    0.154E+00
DAV:   3    -0.184468136866E+04   -0.68337E-01   -0.74316E-01  6084   0.884E-01    0.117E+00
DAV:   4    -0.184468163891E+04   -0.27025E-03   -0.69771E-02  5988   0.268E-01    0.870E-01
DAV:   5    -0.184467909445E+04    0.25445E-02   -0.69797E-03  5748   0.796E-02    0.609E-01
DAV:   6    -0.184467788924E+04    0.12052E-02   -0.41073E-03  4776   0.589E-02    0.287E-01
DAV:   7    -0.184467791057E+04   -0.21333E-04   -0.23520E-03  5052   0.410E-02    0.999E-02
DAV:   8    -0.184467792591E+04   -0.15339E-04   -0.43782E-04  5280   0.183E-02    0.111E-01
DAV:   9    -0.184467792940E+04   -0.34863E-05   -0.25074E-05  2232   0.660E-03
     17 T=   518. E= -.18155341E+04 F= -.18446779E+04 E0= -.18446779E+04  EK= 0.29144E+02 SP= 0.00E+00 SK= 0.00E+00
 bond charge predicted
 prediction of wavefunctions
       N       E                     dE             d eps       ncg     rms          rms(c)
DAV:   1    -0.184418970229E+04    0.48822E+00   -0.23341E+01  3300   0.760E+00    0.351E+00
DAV:   2    -0.184468707379E+04   -0.49737E+00   -0.53941E+00  3444   0.230E+00    0.153E+00
DAV:   3    -0.184475859328E+04   -0.71519E-01   -0.77677E-01  6084   0.910E-01    0.118E+00
DAV:   4    -0.184475886364E+04   -0.27036E-03   -0.74228E-02  5892   0.277E-01    0.849E-01
DAV:   5    -0.184475641898E+04    0.24447E-02   -0.77643E-03  5772   0.840E-02    0.571E-01
DAV:   6    -0.184475551928E+04    0.89970E-03   -0.39251E-03  4860   0.568E-02    0.266E-01
DAV:   7    -0.184475561471E+04   -0.95424E-04   -0.19792E-03  5064   0.373E-02    0.995E-02
DAV:   8    -0.184475561066E+04    0.40459E-05   -0.39577E-04  5304   0.176E-02    0.107E-01
DAV:   9    -0.184475561156E+04   -0.89890E-06   -0.23538E-05  2184   0.635E-03
     18 T=   535. E= -.18146969E+04 F= -.18447556E+04 E0= -.18447556E+04  EK= 0.30059E+02 SP= 0.00E+00 SK= 0.00E+00
 bond charge predicted
 prediction of wavefunctions
       N       E                     dE             d eps       ncg     rms          rms(c)
DAV:   1    -0.184424737097E+04    0.50824E+00   -0.25245E+01  3348   0.774E+00    0.362E+00
DAV:   2    -0.184476085427E+04   -0.51348E+00   -0.55618E+00  3492   0.234E+00    0.157E+00
DAV:   3    -0.184483488078E+04   -0.74027E-01   -0.80190E-01  6132   0.921E-01    0.122E+00
DAV:   4    -0.184483522669E+04   -0.34591E-03   -0.75269E-02  5940   0.278E-01    0.885E-01
DAV:   5    -0.184483279250E+04    0.24342E-02   -0.74008E-03  5820   0.820E-02    0.619E-01
DAV:   6    -0.184483158600E+04    0.12065E-02   -0.42749E-03  4764   0.599E-02    0.279E-01
DAV:   7    -0.184483166714E+04   -0.81140E-04   -0.24415E-03  5076   0.401E-02    0.106E-01
DAV:   8    -0.184483167664E+04   -0.94968E-05   -0.35120E-04  5424   0.167E-02    0.112E-01
DAV:   9    -0.184483168419E+04   -0.75543E-05   -0.21844E-05  2100   0.613E-03
     19 T=   550. E= -.18139269E+04 F= -.18448317E+04 E0= -.18448317E+04  EK= 0.30905E+02 SP= 0.00E+00 SK= 0.00E+00
 bond charge predicted
 prediction of wavefunctions
       N       E                     dE             d eps       ncg     rms          rms(c)
DAV:   1    -0.184432978861E+04    0.50189E+00   -0.24447E+01  3384   0.773E+00    0.359E+00
DAV:   2    -0.184483980871E+04   -0.51002E+00   -0.55117E+00  3480   0.234E+00    0.155E+00
DAV:   3    -0.184491117423E+04   -0.71366E-01   -0.77519E-01  6132   0.918E-01    0.121E+00
DAV:   4    -0.184491147619E+04   -0.30195E-03   -0.72811E-02  5892   0.271E-01    0.876E-01
DAV:   5    -0.184490888188E+04    0.25943E-02   -0.78929E-03  5856   0.863E-02    0.582E-01
DAV:   6    -0.184490803860E+04    0.84328E-03   -0.40092E-03  4860   0.573E-02    0.275E-01
DAV:   7    -0.184490811266E+04   -0.74059E-04   -0.17266E-03  5076   0.359E-02    0.105E-01
DAV:   8    -0.184490812700E+04   -0.14345E-04   -0.36267E-04  5316   0.165E-02    0.102E-01
DAV:   9    -0.184490812610E+04    0.90658E-06   -0.23165E-05  2280   0.617E-03
     20 T=   557. E= -.18135749E+04 F= -.18449081E+04 E0= -.18449081E+04  EK= 0.31333E+02 SP= 0.00E+00 SK= 0.00E+00
 bond charge predicted
 prediction of wavefunctions
       N       E                     dE             d eps       ncg     rms          rms(c)
DAV:   1    -0.184439523684E+04    0.51289E+00   -0.23047E+01  3432   0.770E+00    0.358E+00
DAV:   2    -0.184488627814E+04   -0.49104E+00   -0.53145E+00  3420   0.226E+00    0.154E+00
DAV:   3    -0.184495380036E+04   -0.67522E-01   -0.73882E-01  6048   0.905E-01    0.121E+00
DAV:   4    -0.184495409446E+04   -0.29410E-03   -0.69633E-02  5904   0.263E-01    0.886E-01
DAV:   5    -0.184495137320E+04    0.27213E-02   -0.72037E-03  5832   0.843E-02    0.614E-01
DAV:   6    -0.184495019162E+04    0.11816E-02   -0.42781E-03  4788   0.590E-02    0.292E-01
DAV:   7    -0.184495020439E+04   -0.12769E-04   -0.22499E-03  5004   0.396E-02    0.966E-02
DAV:   8    -0.184495022198E+04   -0.17582E-04   -0.43597E-04  5340   0.181E-02    0.104E-01
DAV:   9    -0.184495022427E+04   -0.22925E-05   -0.26441E-05  2256   0.681E-03
     21 T=   558. E= -.18135635E+04 F= -.18449502E+04 E0= -.18449502E+04  EK= 0.31387E+02 SP= 0.00E+00 SK= 0.00E+00
 bond charge predicted
 prediction of wavefunctions
       N       E                     dE             d eps       ncg     rms          rms(c)
DAV:   1    -0.184441628975E+04    0.53393E+00   -0.24340E+01  3384   0.778E+00    0.367E+00
DAV:   2    -0.184491963028E+04   -0.50334E+00   -0.54475E+00  3432   0.232E+00    0.158E+00
DAV:   3    -0.184499143385E+04   -0.71804E-01   -0.77714E-01  6096   0.916E-01    0.124E+00
DAV:   4    -0.184499169268E+04   -0.25883E-03   -0.72529E-02  5916   0.273E-01    0.906E-01
DAV:   5    -0.184498904888E+04    0.26438E-02   -0.73933E-03  5760   0.829E-02    0.627E-01
DAV:   6    -0.184498787937E+04    0.11695E-02   -0.42381E-03  4704   0.587E-02    0.295E-01
DAV:   7    -0.184498792900E+04   -0.49638E-04   -0.24211E-03  5004   0.412E-02    0.101E-01
DAV:   8    -0.184498794301E+04   -0.14004E-04   -0.49353E-04  5304   0.189E-02    0.109E-01
DAV:   9    -0.184498794583E+04   -0.28209E-05   -0.33703E-05  2508   0.729E-03
     22 T=   558. E= -.18136376E+04 F= -.18449879E+04 E0= -.18449879E+04  EK= 0.31350E+02 SP= 0.00E+00 SK= 0.00E+00
 bond charge predicted
 prediction of wavefunctions
       N       E                     dE             d eps       ncg     rms          rms(c)
DAV:   1    -0.184440521359E+04    0.58273E+00   -0.23282E+01  3348   0.782E+00    0.356E+00
DAV:   2    -0.184490199840E+04   -0.49678E+00   -0.53884E+00  3408   0.231E+00    0.154E+00
DAV:   3    -0.184497145584E+04   -0.69457E-01   -0.75662E-01  6048   0.910E-01    0.122E+00
DAV:   4    -0.184497174129E+04   -0.28545E-03   -0.71566E-02  5868   0.270E-01    0.876E-01
DAV:   5    -0.184496917159E+04    0.25697E-02   -0.73364E-03  5796   0.848E-02    0.597E-01
DAV:   6    -0.184496813457E+04    0.10370E-02   -0.41095E-03  4692   0.585E-02    0.278E-01
DAV:   7    -0.184496819333E+04   -0.58758E-04   -0.20247E-03  5052   0.383E-02    0.101E-01
DAV:   8    -0.184496820709E+04   -0.13759E-04   -0.38847E-04  5316   0.171E-02    0.105E-01
DAV:   9    -0.184496820899E+04   -0.18972E-05   -0.23590E-05  2136   0.669E-03
     23 T=   559. E= -.18135433E+04 F= -.18449682E+04 E0= -.18449682E+04  EK= 0.31425E+02 SP= 0.00E+00 SK= 0.00E+00
 bond charge predicted
 prediction of wavefunctions
       N       E                     dE             d eps       ncg     rms          rms(c)
DAV:   1    -0.184439595002E+04    0.57226E+00   -0.23694E+01  3420   0.778E+00    0.361E+00
DAV:   2    -0.184488688186E+04   -0.49093E+00   -0.53260E+00  3456   0.232E+00    0.156E+00
DAV:   3    -0.184495632946E+04   -0.69448E-01   -0.75696E-01  6036   0.910E-01    0.122E+00
DAV:   4    -0.184495637233E+04   -0.42871E-04   -0.72447E-02  5952   0.273E-01    0.880E-01
DAV:   5    -0.184495384389E+04    0.25284E-02   -0.73109E-03  5820   0.844E-02    0.608E-01
DAV:   6    -0.184495271584E+04    0.11281E-02   -0.40816E-03  4800   0.592E-02    0.279E-01
DAV:   7    -0.184495278407E+04   -0.68236E-04   -0.23468E-03  4968   0.406E-02    0.102E-01
DAV:   8    -0.184495279256E+04   -0.84907E-05   -0.43119E-04  5316   0.179E-02    0.110E-01
DAV:   9    -0.184495279419E+04   -0.16249E-05   -0.24126E-05  2256   0.668E-03
     24 T=   563. E= -.18132966E+04 F= -.18449528E+04 E0= -.18449528E+04  EK= 0.31656E+02 SP= 0.00E+00 SK= 0.00E+00
 bond charge predicted
 prediction of wavefunctions
       N       E                     dE             d eps       ncg     rms          rms(c)
DAV:   1    -0.184437484594E+04    0.57795E+00   -0.21416E+01  3588   0.794E+00    0.362E+00
DAV:   2    -0.184486607089E+04   -0.49122E+00   -0.53474E+00  3432   0.231E+00    0.156E+00
DAV:   3    -0.184493646146E+04   -0.70391E-01   -0.76237E-01  6120   0.910E-01    0.124E+00
DAV:   4    -0.184493648675E+04   -0.25291E-04   -0.71722E-02  5784   0.279E-01    0.892E-01
DAV:   5    -0.184493403801E+04    0.24487E-02   -0.72356E-03  5796   0.864E-02    0.625E-01
DAV:   6    -0.184493273342E+04    0.13046E-02   -0.41436E-03  4680   0.605E-02    0.286E-01
DAV:   7    -0.184493281423E+04   -0.80807E-04   -0.28779E-03  5076   0.440E-02    0.107E-01
DAV:   8    -0.184493282105E+04   -0.68228E-05   -0.48642E-04  5256   0.186E-02    0.116E-01
DAV:   9    -0.184493283168E+04   -0.10627E-04   -0.30255E-05  2412   0.739E-03    0.101E-01
DAV:  10    -0.184493283237E+04   -0.69200E-06   -0.66389E-05  3432   0.683E-03
     25 T=   564. E= -.18132131E+04 F= -.18449328E+04 E0= -.18449328E+04  EK= 0.31720E+02 SP= 0.00E+00 SK= 0.00E+00
 bond charge predicted
 prediction of wavefunctions
       N       E                     dE             d eps       ncg     rms          rms(c)
DAV:   1    -0.184433244467E+04    0.60039E+00   -0.23416E+01  3600   0.781E+00    0.362E+00
DAV:   2    -0.184482412472E+04   -0.49168E+00   -0.53309E+00  3504   0.230E+00    0.157E+00
DAV:   3    -0.184489187909E+04   -0.67754E-01   -0.73873E-01  6060   0.904E-01    0.123E+00
DAV:   4    -0.184489194329E+04   -0.64201E-04   -0.69142E-02  5880   0.270E-01    0.904E-01
DAV:   5    -0.184488951333E+04    0.24300E-02   -0.67037E-03  5856   0.817E-02    0.658E-01
DAV:   6    -0.184488796832E+04    0.15450E-02   -0.43798E-03  4596   0.619E-02    0.301E-01
DAV:   7    -0.184488801266E+04   -0.44338E-04   -0.32540E-03  5040   0.462E-02    0.107E-01
DAV:   8    -0.184488802265E+04   -0.99888E-05   -0.45841E-04  5220   0.183E-02    0.117E-01
DAV:   9    -0.184488803963E+04   -0.16984E-04   -0.40393E-05  2712   0.758E-03    0.969E-02
DAV:  10    -0.184488803736E+04    0.22708E-05   -0.77260E-05  3396   0.727E-03
     26 T=   560. E= -.18134097E+04 F= -.18448880E+04 E0= -.18448880E+04  EK= 0.31478E+02 SP= 0.00E+00 SK= 0.00E+00
 bond charge predicted
 prediction of wavefunctions
       N       E                     dE             d eps       ncg     rms          rms(c)
DAV:   1    -0.184429113925E+04    0.59690E+00   -0.25057E+01  3468   0.774E+00    0.358E+00
DAV:   2    -0.184478248373E+04   -0.49134E+00   -0.53172E+00  3492   0.232E+00    0.154E+00
DAV:   3    -0.184485001519E+04   -0.67531E-01   -0.73265E-01  6144   0.891E-01    0.123E+00
DAV:   4    -0.184485005778E+04   -0.42597E-04   -0.68724E-02  5892   0.270E-01    0.883E-01
DAV:   5    -0.184484765542E+04    0.24024E-02   -0.69308E-03  5724   0.824E-02    0.618E-01
DAV:   6    -0.184484647827E+04    0.11771E-02   -0.41582E-03  4644   0.609E-02    0.279E-01
DAV:   7    -0.184484654857E+04   -0.70294E-04   -0.24269E-03  4956   0.416E-02    0.105E-01
DAV:   8    -0.184484656015E+04   -0.11587E-04   -0.41027E-04  5388   0.175E-02    0.110E-01
DAV:   9    -0.184484656748E+04   -0.73309E-05   -0.24728E-05  2232   0.664E-03
     27 T=   555. E= -.18136149E+04 F= -.18448466E+04 E0= -.18448466E+04  EK= 0.31232E+02 SP= 0.00E+00 SK= 0.00E+00
 bond charge predicted
 prediction of wavefunctions
       N       E                     dE             d eps       ncg     rms          rms(c)
DAV:   1    -0.184421868643E+04    0.62787E+00   -0.21196E+01  3504   0.766E+00    0.358E+00
DAV:   2    -0.184469393646E+04   -0.47525E+00   -0.51636E+00  3456   0.225E+00    0.155E+00
DAV:   3    -0.184475818590E+04   -0.64249E-01   -0.70224E-01  6060   0.880E-01    0.121E+00
DAV:   4    -0.184475811456E+04    0.71346E-04   -0.66947E-02  5904   0.265E-01    0.894E-01
DAV:   5    -0.184475558643E+04    0.25281E-02   -0.67473E-03  5796   0.806E-02    0.633E-01
DAV:   6    -0.184475419814E+04    0.13883E-02   -0.43401E-03  4680   0.602E-02    0.288E-01
DAV:   7    -0.184475425056E+04   -0.52425E-04   -0.27855E-03  5064   0.423E-02    0.104E-01
DAV:   8    -0.184475426193E+04   -0.11367E-04   -0.40638E-04  5328   0.176E-02    0.113E-01
DAV:   9    -0.184475427207E+04   -0.10136E-04   -0.24030E-05  2160   0.687E-03    0.968E-02
DAV:  10    -0.184475427486E+04   -0.27902E-05   -0.68233E-05  3540   0.711E-03
     28 T=   554. E= -.18136151E+04 F= -.18447543E+04 E0= -.18447543E+04  EK= 0.31139E+02 SP= 0.00E+00 SK= 0.00E+00
 bond charge predicted
 prediction of wavefunctions
       N       E                     dE             d eps       ncg     rms          rms(c)
DAV:   1    -0.184409543311E+04    0.65884E+00   -0.21754E+01  3492   0.742E+00    0.364E+00
DAV:   2    -0.184457240152E+04   -0.47697E+00   -0.51589E+00  3528   0.227E+00    0.159E+00
DAV:   3    -0.184463794958E+04   -0.65548E-01   -0.71774E-01  6084   0.875E-01    0.122E+00
DAV:   4    -0.184463788482E+04    0.64757E-04   -0.67450E-02  5844   0.268E-01    0.906E-01
DAV:   5    -0.184463521686E+04    0.26680E-02   -0.70647E-03  5736   0.843E-02    0.633E-01
DAV:   6    -0.184463389853E+04    0.13183E-02   -0.42085E-03  4620   0.596E-02    0.304E-01
DAV:   7    -0.184463391897E+04   -0.20443E-04   -0.26508E-03  5040   0.421E-02    0.109E-01
DAV:   8    -0.184463393086E+04   -0.11892E-04   -0.44792E-04  5280   0.176E-02    0.112E-01
DAV:   9    -0.184463394029E+04   -0.94278E-05   -0.36411E-05  2556   0.761E-03
     29 T=   550. E= -.18137329E+04 F= -.18446339E+04 E0= -.18446339E+04  EK= 0.30901E+02 SP= 0.00E+00 SK= 0.00E+00
 bond charge predicted
 prediction of wavefunctions
       N       E                     dE             d eps       ncg     rms          rms(c)
DAV:   1    -0.184387677386E+04    0.75716E+00   -0.24117E+01  3456   0.766E+00    0.361E+00
DAV:   2    -0.184436657295E+04   -0.48980E+00   -0.53310E+00  3492   0.231E+00    0.157E+00
DAV:   3    -0.184443570636E+04   -0.69133E-01   -0.75150E-01  6060   0.899E-01    0.124E+00
DAV:   4    -0.184443590513E+04   -0.19877E-03   -0.71388E-02  5868   0.277E-01    0.902E-01
DAV:   5    -0.184443332481E+04    0.25803E-02   -0.74736E-03  5784   0.855E-02    0.634E-01
DAV:   6    -0.184443196196E+04    0.13629E-02   -0.46378E-03  4620   0.633E-02    0.284E-01
DAV:   7    -0.184443206104E+04   -0.99084E-04   -0.28925E-03  5004   0.440E-02    0.108E-01
DAV:   8    -0.184443205824E+04    0.28000E-05   -0.42407E-04  5292   0.179E-02    0.118E-01
DAV:   9    -0.184443206852E+04   -0.10280E-04   -0.27132E-05  2292   0.691E-03    0.101E-01
DAV:  10    -0.184443207476E+04   -0.62437E-05   -0.90760E-05  3768   0.776E-03
     30 T=   546. E= -.18137061E+04 F= -.18444321E+04 E0= -.18444321E+04  EK= 0.30726E+02 SP= 0.00E+00 SK= 0.00E+00
 bond charge predicted
 prediction of wavefunctions
       N       E                     dE             d eps       ncg     rms          rms(c)
DAV:   1    -0.184369022804E+04    0.74184E+00   -0.23918E+01  3492   0.748E+00    0.359E+00
DAV:   2    -0.184417773478E+04   -0.48751E+00   -0.52875E+00  3552   0.230E+00    0.156E+00
DAV:   3    -0.184424525029E+04   -0.67516E-01   -0.73619E-01  6024   0.887E-01    0.123E+00
DAV:   4    -0.184424547621E+04   -0.22591E-03   -0.69049E-02  5856   0.273E-01    0.901E-01
DAV:   5    -0.184424297927E+04    0.24969E-02   -0.70717E-03  5784   0.842E-02    0.642E-01
DAV:   6    -0.184424157860E+04    0.14007E-02   -0.43829E-03  4812   0.626E-02    0.296E-01
DAV:   7    -0.184424164635E+04   -0.67748E-04   -0.30456E-03  4992   0.449E-02    0.104E-01
DAV:   8    -0.184424165233E+04   -0.59743E-05   -0.47453E-04  5376   0.188E-02    0.115E-01
DAV:   9    -0.184424166305E+04   -0.10720E-04   -0.28326E-05  2340   0.725E-03    0.996E-02
DAV:  10    -0.184424167760E+04   -0.14554E-04   -0.10803E-04  3780   0.795E-03    0.575E-02
DAV:  11    -0.184424163106E+04    0.46539E-04   -0.52020E-05  2808   0.751E-03    0.404E-02
DAV:  12    -0.184424162517E+04    0.58891E-05   -0.24344E-05  1992   0.473E-03
     31 T=   548. E= -.18134360E+04 F= -.18442416E+04 E0= -.18442416E+04  EK= 0.30806E+02 SP= 0.00E+00 SK= 0.00E+00
 bond charge predicted
 prediction of wavefunctions
       N       E                     dE             d eps       ncg     rms          rms(c)
DAV:   1    -0.184352377074E+04    0.71786E+00   -0.23746E+01  3516   0.754E+00    0.363E+00
DAV:   2    -0.184400909210E+04   -0.48532E+00   -0.52383E+00  3540   0.227E+00    0.158E+00
DAV:   3    -0.184407689700E+04   -0.67805E-01   -0.73339E-01  6156   0.895E-01    0.122E+00
DAV:   4    -0.184407696728E+04   -0.70282E-04   -0.67861E-02  5856   0.264E-01    0.893E-01
DAV:   5    -0.184407450529E+04    0.24620E-02   -0.70081E-03  5820   0.824E-02    0.618E-01
DAV:   6    -0.184407342220E+04    0.10831E-02   -0.40825E-03  4752   0.579E-02    0.285E-01
DAV:   7    -0.184407348378E+04   -0.61583E-04   -0.22199E-03  5124   0.392E-02    0.102E-01
DAV:   8    -0.184407349277E+04   -0.89937E-05   -0.40586E-04  5328   0.172E-02    0.107E-01
DAV:   9    -0.184407349658E+04   -0.38096E-05   -0.24290E-05  2280   0.668E-03
     32 T=   547. E= -.18133021E+04 F= -.18440735E+04 E0= -.18440735E+04  EK= 0.30771E+02 SP= 0.00E+00 SK= 0.00E+00
 bond charge predicted
 prediction of wavefunctions
       N       E                     dE             d eps       ncg     rms          rms(c)
DAV:   1    -0.184337599938E+04    0.69749E+00   -0.24305E+01  3444   0.750E+00    0.357E+00
DAV:   2    -0.184385817792E+04   -0.48218E+00   -0.52126E+00  3588   0.225E+00    0.154E+00
DAV:   3    -0.184392723625E+04   -0.69058E-01   -0.74568E-01  6084   0.886E-01    0.121E+00
DAV:   4    -0.184392754875E+04   -0.31250E-03   -0.69357E-02  5796   0.272E-01    0.873E-01
DAV:   5    -0.184392526947E+04    0.22793E-02   -0.71197E-03  5772   0.833E-02    0.604E-01
DAV:   6    -0.184392417371E+04    0.10958E-02   -0.40969E-03  4632   0.578E-02    0.271E-01
DAV:   7    -0.184392427452E+04   -0.10081E-03   -0.23738E-03  4932   0.394E-02    0.103E-01
DAV:   8    -0.184392427571E+04   -0.11869E-05   -0.40966E-04  5496   0.174E-02    0.108E-01
DAV:   9    -0.184392428444E+04   -0.87305E-05   -0.26797E-05  2256   0.690E-03
     33 T=   546. E= -.18132310E+04 F= -.18439243E+04 E0= -.18439243E+04  EK= 0.30693E+02 SP= 0.00E+00 SK= 0.00E+00
 bond charge predicted
 prediction of wavefunctions
       N       E                     dE             d eps       ncg     rms          rms(c)
DAV:   1    -0.184325090350E+04    0.67337E+00   -0.23213E+01  3384   0.745E+00    0.360E+00
DAV:   2    -0.184373799800E+04   -0.48709E+00   -0.52634E+00  3504   0.230E+00    0.156E+00
DAV:   3    -0.184380461951E+04   -0.66622E-01   -0.72611E-01  6072   0.888E-01    0.122E+00
DAV:   4    -0.184380483015E+04   -0.21063E-03   -0.67589E-02  5916   0.268E-01    0.895E-01
DAV:   5    -0.184380229890E+04    0.25312E-02   -0.69967E-03  5808   0.827E-02    0.620E-01
DAV:   6    -0.184380113892E+04    0.11600E-02   -0.43900E-03  4728   0.604E-02    0.278E-01
DAV:   7    -0.184380122003E+04   -0.81111E-04   -0.23060E-03  5088   0.396E-02    0.103E-01
DAV:   8    -0.184380122540E+04   -0.53689E-05   -0.36678E-04  5412   0.166E-02    0.108E-01
DAV:   9    -0.184380123142E+04   -0.60226E-05   -0.22709E-05  2268   0.658E-03
     34 T=   545. E= -.18131811E+04 F= -.18438012E+04 E0= -.18438012E+04  EK= 0.30620E+02 SP= 0.00E+00 SK= 0.00E+00
 bond charge predicted
 prediction of wavefunctions
       N       E                     dE             d eps       ncg     rms          rms(c)
DAV:   1    -0.184311211010E+04    0.68912E+00   -0.26041E+01  3336   0.771E+00    0.362E+00
DAV:   2    -0.184360793353E+04   -0.49582E+00   -0.53291E+00  3492   0.230E+00    0.155E+00
DAV:   3    -0.184367711529E+04   -0.69182E-01   -0.74859E-01  6060   0.886E-01    0.124E+00
DAV:   4    -0.184367760688E+04   -0.49159E-03   -0.69092E-02  5868   0.270E-01    0.887E-01
DAV:   5    -0.184367543232E+04    0.21746E-02   -0.69729E-03  5832   0.830E-02    0.616E-01
DAV:   6    -0.184367444801E+04    0.98431E-03   -0.38991E-03  4764   0.587E-02    0.275E-01
DAV:   7    -0.184367456124E+04   -0.11323E-03   -0.22376E-03  5040   0.401E-02    0.105E-01
DAV:   8    -0.184367456563E+04   -0.43952E-05   -0.38764E-04  5364   0.172E-02    0.111E-01
DAV:   9    -0.184367457143E+04   -0.57944E-05   -0.22252E-05  2124   0.640E-03
     35 T=   543. E= -.18131473E+04 F= -.18436746E+04 E0= -.18436746E+04  EK= 0.30527E+02 SP= 0.00E+00 SK= 0.00E+00
 bond charge predicted
 prediction of wavefunctions
       N       E                     dE             d eps       ncg     rms          rms(c)
DAV:   1    -0.184296273734E+04    0.71183E+00   -0.24851E+01  3336   0.759E+00    0.368E+00
DAV:   2    -0.184346733377E+04   -0.50460E+00   -0.54473E+00  3480   0.234E+00    0.158E+00
DAV:   3    -0.184353782462E+04   -0.70491E-01   -0.76112E-01  6108   0.904E-01    0.123E+00
DAV:   4    -0.184353825586E+04   -0.43124E-03   -0.71076E-02  5880   0.271E-01    0.891E-01
DAV:   5    -0.184353597713E+04    0.22787E-02   -0.72212E-03  5796   0.832E-02    0.611E-01
DAV:   6    -0.184353499340E+04    0.98373E-03   -0.41440E-03  4800   0.596E-02    0.271E-01
DAV:   7    -0.184353511103E+04   -0.11764E-03   -0.20781E-03  4992   0.387E-02    0.108E-01
DAV:   8    -0.184353511837E+04   -0.73361E-05   -0.37561E-04  5472   0.165E-02    0.109E-01
DAV:   9    -0.184353512284E+04   -0.44673E-05   -0.22713E-05  2124   0.627E-03
     36 T=   545. E= -.18129169E+04 F= -.18435351E+04 E0= -.18435351E+04  EK= 0.30618E+02 SP= 0.00E+00 SK= 0.00E+00
 bond charge predicted
 prediction of wavefunctions
       N       E                     dE             d eps       ncg     rms          rms(c)
DAV:   1    -0.184280643424E+04    0.72868E+00   -0.25348E+01  3372   0.767E+00    0.368E+00
DAV:   2    -0.184331655162E+04   -0.51012E+00   -0.55120E+00  3468   0.233E+00    0.158E+00
DAV:   3    -0.184338778253E+04   -0.71231E-01   -0.77203E-01  6120   0.905E-01    0.123E+00
DAV:   4    -0.184338816186E+04   -0.37933E-03   -0.71801E-02  5880   0.274E-01    0.887E-01
DAV:   5    -0.184338577047E+04    0.23914E-02   -0.75884E-03  5724   0.860E-02    0.598E-01
DAV:   6    -0.184338486599E+04    0.90449E-03   -0.41091E-03  4776   0.580E-02    0.272E-01
DAV:   7    -0.184338496789E+04   -0.10190E-03   -0.19811E-03  5064   0.379E-02    0.107E-01
DAV:   8    -0.184338497260E+04   -0.47155E-05   -0.38924E-04  5304   0.169E-02    0.107E-01
DAV:   9    -0.184338497445E+04   -0.18434E-05   -0.24048E-05  2196   0.647E-03
     37 T=   552. E= -.18123545E+04 F= -.18433850E+04 E0= -.18433850E+04  EK= 0.31030E+02 SP= 0.00E+00 SK= 0.00E+00
 bond charge predicted
 prediction of wavefunctions
       N       E                     dE             d eps       ncg     rms          rms(c)
DAV:   1    -0.184261450693E+04    0.77047E+00   -0.23181E+01  3408   0.771E+00    0.367E+00
DAV:   2    -0.184312702119E+04   -0.51251E+00   -0.55645E+00  3468   0.230E+00    0.160E+00
DAV:   3    -0.184320280523E+04   -0.75784E-01   -0.81770E-01  6060   0.924E-01    0.123E+00
DAV:   4    -0.184320302650E+04   -0.22127E-03   -0.76773E-02  5880   0.283E-01    0.896E-01
DAV:   5    -0.184320052163E+04    0.25049E-02   -0.77342E-03  5796   0.866E-02    0.616E-01
DAV:   6    -0.184319933366E+04    0.11880E-02   -0.43560E-03  4812   0.611E-02    0.276E-01
DAV:   7    -0.184319947951E+04   -0.14585E-03   -0.27432E-03  4980   0.432E-02    0.111E-01
DAV:   8    -0.184319947562E+04    0.38941E-05   -0.51819E-04  5256   0.189E-02    0.119E-01
DAV:   9    -0.184319948434E+04   -0.87202E-05   -0.36020E-05  2568   0.741E-03
     38 T=   562. E= -.18115875E+04 F= -.18431995E+04 E0= -.18431995E+04  EK= 0.31612E+02 SP= 0.00E+00 SK= 0.00E+00
 bond charge predicted
 prediction of wavefunctions
       N       E                     dE             d eps       ncg     rms          rms(c)
DAV:   1    -0.184234470430E+04    0.85477E+00   -0.23524E+01  3408   0.775E+00    0.362E+00
DAV:   2    -0.184285031545E+04   -0.50561E+00   -0.54845E+00  3492   0.233E+00    0.154E+00
DAV:   3    -0.184292348057E+04   -0.73165E-01   -0.78386E-01  6096   0.906E-01    0.123E+00
DAV:   4    -0.184292391051E+04   -0.42994E-03   -0.73728E-02  5856   0.277E-01    0.867E-01
DAV:   5    -0.184292166763E+04    0.22429E-02   -0.76139E-03  5772   0.856E-02    0.586E-01
DAV:   6    -0.184292074827E+04    0.91936E-03   -0.39406E-03  4764   0.579E-02    0.260E-01
DAV:   7    -0.184292088527E+04   -0.13700E-03   -0.21042E-03  4956   0.384E-02    0.108E-01
DAV:   8    -0.184292087980E+04    0.54753E-05   -0.38448E-04  5472   0.174E-02    0.111E-01
DAV:   9    -0.184292088188E+04   -0.20869E-05   -0.21591E-05  2196   0.619E-03
     39 T=   567. E= -.18110404E+04 F= -.18429209E+04 E0= -.18429209E+04  EK= 0.31880E+02 SP= 0.00E+00 SK= 0.00E+00
 bond charge predicted
 prediction of wavefunctions
       N       E                     dE             d eps       ncg     rms          rms(c)
DAV:   1    -0.184199837851E+04    0.92250E+00   -0.24986E+01  3372   0.785E+00    0.384E+00
DAV:   2    -0.184253085182E+04   -0.53247E+00   -0.57623E+00  3432   0.239E+00    0.165E+00
DAV:   3    -0.184261006896E+04   -0.79217E-01   -0.84920E-01  6120   0.940E-01    0.126E+00
DAV:   4    -0.184261040139E+04   -0.33244E-03   -0.78690E-02  5784   0.286E-01    0.929E-01
DAV:   5    -0.184260810809E+04    0.22933E-02   -0.78304E-03  5808   0.870E-02    0.650E-01
DAV:   6    -0.184260685137E+04    0.12567E-02   -0.44174E-03  4752   0.619E-02    0.284E-01
DAV:   7    -0.184260700996E+04   -0.15859E-03   -0.28532E-03  5004   0.432E-02    0.117E-01
DAV:   8    -0.184260701241E+04   -0.24560E-05   -0.44445E-04  5556   0.179E-02    0.121E-01
DAV:   9    -0.184260703079E+04   -0.18375E-04   -0.44761E-05  2844   0.717E-03    0.977E-02
DAV:  10    -0.184260700213E+04    0.28661E-04   -0.23874E-05  2076   0.616E-03    0.634E-02
DAV:  11    -0.184260696296E+04    0.39173E-04   -0.95407E-05  3936   0.835E-03    0.347E-02
DAV:  12    -0.184260696428E+04   -0.13215E-05   -0.11798E-05  1908   0.407E-03
     40 T=   563. E= -.18109290E+04 F= -.18426070E+04 E0= -.18426070E+04  EK= 0.31678E+02 SP= 0.00E+00 SK= 0.00E+00
 bond charge predicted
 prediction of wavefunctions
       N       E                     dE             d eps       ncg     rms          rms(c)
DAV:   1    -0.184166694793E+04    0.94002E+00   -0.22625E+01  3420   0.774E+00    0.364E+00
DAV:   2    -0.184217800513E+04   -0.51106E+00   -0.55306E+00  3480   0.231E+00    0.160E+00
DAV:   3    -0.184225173281E+04   -0.73728E-01   -0.79788E-01  6096   0.917E-01    0.123E+00
DAV:   4    -0.184225202547E+04   -0.29266E-03   -0.73546E-02  5904   0.277E-01    0.902E-01
DAV:   5    -0.184224944148E+04    0.25840E-02   -0.73408E-03  5784   0.842E-02    0.626E-01
DAV:   6    -0.184224821228E+04    0.12292E-02   -0.45408E-03  4740   0.613E-02    0.281E-01
DAV:   7    -0.184224831441E+04   -0.10213E-03   -0.25661E-03  5004   0.419E-02    0.107E-01
DAV:   8    -0.184224832791E+04   -0.13503E-04   -0.44218E-04  5328   0.179E-02    0.114E-01
DAV:   9    -0.184224833667E+04   -0.87610E-05   -0.32946E-05  2484   0.706E-03
     41 T=   552. E= -.18112079E+04 F= -.18422483E+04 E0= -.18422483E+04  EK= 0.31040E+02 SP= 0.00E+00 SK= 0.00E+00
 bond charge predicted
 prediction of wavefunctions
       N       E                     dE             d eps       ncg     rms          rms(c)
DAV:   1    -0.184131793106E+04    0.93040E+00   -0.22897E+01  3360   0.762E+00    0.352E+00
DAV:   2    -0.184181304883E+04   -0.49512E+00   -0.53891E+00  3480   0.231E+00    0.153E+00
DAV:   3    -0.184188691736E+04   -0.73869E-01   -0.79525E-01  6144   0.916E-01    0.119E+00
DAV:   4    -0.184188703393E+04   -0.11657E-03   -0.73513E-02  5880   0.278E-01    0.847E-01
DAV:   5    -0.184188464773E+04    0.23862E-02   -0.76273E-03  5724   0.848E-02    0.569E-01
DAV:   6    -0.184188370666E+04    0.94107E-03   -0.41843E-03  4716   0.588E-02    0.254E-01
DAV:   7    -0.184188385648E+04   -0.14982E-03   -0.21318E-03  5052   0.389E-02    0.107E-01
DAV:   8    -0.184188384931E+04    0.71706E-05   -0.39757E-04  5244   0.169E-02    0.112E-01
DAV:   9    -0.184188385232E+04   -0.30119E-05   -0.23889E-05  2316   0.648E-03
     42 T=   544. E= -.18113095E+04 F= -.18418839E+04 E0= -.18418839E+04  EK= 0.30574E+02 SP= 0.00E+00 SK= 0.00E+00
 bond charge predicted
 prediction of wavefunctions
       N       E                     dE             d eps       ncg     rms          rms(c)
DAV:   1    -0.184103882045E+04    0.84503E+00   -0.24306E+01  3312   0.757E+00    0.362E+00
DAV:   2    -0.184152528275E+04   -0.48646E+00   -0.52945E+00  3492   0.228E+00    0.156E+00
DAV:   3    -0.184159573941E+04   -0.70457E-01   -0.76376E-01  6132   0.896E-01    0.122E+00
DAV:   4    -0.184159592880E+04   -0.18938E-03   -0.71360E-02  5856   0.276E-01    0.883E-01
DAV:   5    -0.184159331084E+04    0.26180E-02   -0.75070E-03  5760   0.855E-02    0.602E-01
DAV:   6    -0.184159217584E+04    0.11350E-02   -0.46075E-03  4620   0.630E-02    0.269E-01
DAV:   7    -0.184159228128E+04   -0.10544E-03   -0.23209E-03  4956   0.414E-02    0.107E-01
DAV:   8    -0.184159228587E+04   -0.45885E-05   -0.42516E-04  5292   0.180E-02    0.112E-01
DAV:   9    -0.184159229045E+04   -0.45818E-05   -0.28729E-05  2376   0.664E-03
     43 T=   535. E= -.18115355E+04 F= -.18415923E+04 E0= -.18415923E+04  EK= 0.30057E+02 SP= 0.00E+00 SK= 0.00E+00
 bond charge predicted
 prediction of wavefunctions
       N       E                     dE             d eps       ncg     rms          rms(c)
DAV:   1    -0.184087795502E+04    0.71433E+00   -0.22370E+01  3384   0.735E+00    0.348E+00
DAV:   2    -0.184133891953E+04   -0.46096E+00   -0.50287E+00  3444   0.221E+00    0.153E+00
DAV:   3    -0.184140538043E+04   -0.66461E-01   -0.72611E-01  6132   0.886E-01    0.120E+00
DAV:   4    -0.184140544049E+04   -0.60064E-04   -0.67262E-02  5928   0.269E-01    0.881E-01
DAV:   5    -0.184140278450E+04    0.26560E-02   -0.68178E-03  5784   0.800E-02    0.620E-01
DAV:   6    -0.184140144891E+04    0.13356E-02   -0.47181E-03  4716   0.609E-02    0.281E-01
DAV:   7    -0.184140152099E+04   -0.72081E-04   -0.25839E-03  5064   0.416E-02    0.102E-01
DAV:   8    -0.184140153381E+04   -0.12827E-04   -0.42122E-04  5448   0.176E-02    0.111E-01
DAV:   9    -0.184140154229E+04   -0.84728E-05   -0.27319E-05  2292   0.682E-03
     44 T=   529. E= -.18116621E+04 F= -.18414015E+04 E0= -.18414015E+04  EK= 0.29739E+02 SP= 0.00E+00 SK= 0.00E+00
 bond charge predicted
 prediction of wavefunctions
       N       E                     dE             d eps       ncg     rms          rms(c)
DAV:   1    -0.184080583765E+04    0.59570E+00   -0.22896E+01  3336   0.743E+00    0.357E+00
DAV:   2    -0.184127101581E+04   -0.46518E+00   -0.50532E+00  3528   0.224E+00    0.154E+00
DAV:   3    -0.184133324546E+04   -0.62230E-01   -0.68072E-01  5976   0.872E-01    0.120E+00
DAV:   4    -0.184133344442E+04   -0.19896E-03   -0.65490E-02  5928   0.259E-01    0.885E-01
DAV:   5    -0.184133095425E+04    0.24902E-02   -0.68415E-03  5880   0.807E-02    0.618E-01
DAV:   6    -0.184132975663E+04    0.11976E-02   -0.41124E-03  4716   0.596E-02    0.284E-01
DAV:   7    -0.184132980539E+04   -0.48768E-04   -0.24268E-03  5004   0.417E-02    0.979E-02
DAV:   8    -0.184132981456E+04   -0.91677E-05   -0.43533E-04  5268   0.182E-02    0.107E-01
DAV:   9    -0.184132982016E+04   -0.56024E-05   -0.29540E-05  2424   0.688E-03
     45 T=   530. E= -.18115152E+04 F= -.18413298E+04 E0= -.18413298E+04  EK= 0.29815E+02 SP= 0.00E+00 SK= 0.00E+00
 bond charge predicted
 prediction of wavefunctions
       N       E                     dE             d eps       ncg     rms          rms(c)
DAV:   1    -0.184083875195E+04    0.49106E+00   -0.23202E+01  3408   0.751E+00    0.359E+00
DAV:   2    -0.184130735825E+04   -0.46861E+00   -0.50782E+00  3456   0.224E+00    0.155E+00
DAV:   3    -0.184136986591E+04   -0.62508E-01   -0.68471E-01  5964   0.883E-01    0.122E+00
DAV:   4    -0.184137004803E+04   -0.18212E-03   -0.65409E-02  6024   0.253E-01    0.896E-01
DAV:   5    -0.184136749687E+04    0.25512E-02   -0.68624E-03  5820   0.804E-02    0.623E-01
DAV:   6    -0.184136634825E+04    0.11486E-02   -0.42985E-03  4740   0.598E-02    0.284E-01
DAV:   7    -0.184136640812E+04   -0.59870E-04   -0.22186E-03  5052   0.396E-02    0.989E-02
DAV:   8    -0.184136641428E+04   -0.61585E-05   -0.37955E-04  5328   0.167E-02    0.104E-01
DAV:   9    -0.184136641931E+04   -0.50298E-05   -0.23255E-05  2292   0.665E-03
     46 T=   535. E= -.18112910E+04 F= -.18413664E+04 E0= -.18413664E+04  EK= 0.30075E+02 SP= 0.00E+00 SK= 0.00E+00
 bond charge predicted
 prediction of wavefunctions
       N       E                     dE             d eps       ncg     rms          rms(c)
DAV:   1    -0.184097896772E+04    0.38745E+00   -0.22995E+01  3360   0.742E+00    0.360E+00
DAV:   2    -0.184143589854E+04   -0.45693E+00   -0.49547E+00  3480   0.219E+00    0.156E+00
DAV:   3    -0.184149788842E+04   -0.61990E-01   -0.67929E-01  6060   0.867E-01    0.120E+00
DAV:   4    -0.184149782419E+04    0.64229E-04   -0.65092E-02  5988   0.256E-01    0.880E-01
DAV:   5    -0.184149525528E+04    0.25689E-02   -0.70496E-03  5700   0.808E-02    0.592E-01
DAV:   6    -0.184149435957E+04    0.89570E-03   -0.38984E-03  4872   0.566E-02    0.284E-01
DAV:   7    -0.184149438853E+04   -0.28954E-04   -0.15802E-03  4980   0.355E-02    0.101E-01
DAV:   8    -0.184149440699E+04   -0.18463E-04   -0.37604E-04  5280   0.171E-02    0.984E-02
DAV:   9    -0.184149440786E+04   -0.87186E-06   -0.24488E-05  2304   0.624E-03
     47 T=   537. E= -.18112966E+04 F= -.18414944E+04 E0= -.18414944E+04  EK= 0.30198E+02 SP= 0.00E+00 SK= 0.00E+00
 bond charge predicted
 prediction of wavefunctions
       N       E                     dE             d eps       ncg     rms          rms(c)
DAV:   1    -0.184116258062E+04    0.33183E+00   -0.22087E+01  3336   0.735E+00    0.357E+00
DAV:   2    -0.184162171467E+04   -0.45913E+00   -0.49889E+00  3492   0.221E+00    0.157E+00
DAV:   3    -0.184168244431E+04   -0.60730E-01   -0.67021E-01  5988   0.849E-01    0.120E+00
DAV:   4    -0.184168254302E+04   -0.98709E-04   -0.64471E-02  5964   0.256E-01    0.883E-01
DAV:   5    -0.184167993048E+04    0.26125E-02   -0.67950E-03  5700   0.798E-02    0.609E-01
DAV:   6    -0.184167883314E+04    0.10973E-02   -0.41844E-03  4848   0.585E-02    0.282E-01
DAV:   7    -0.184167886897E+04   -0.35831E-04   -0.20256E-03  5052   0.384E-02    0.974E-02
DAV:   8    -0.184167888480E+04   -0.15827E-04   -0.39193E-04  5304   0.172E-02    0.103E-01
DAV:   9    -0.184167888701E+04   -0.22165E-05   -0.22356E-05  2148   0.627E-03
     48 T=   537. E= -.18114618E+04 F= -.18416789E+04 E0= -.18416789E+04  EK= 0.30217E+02 SP= 0.00E+00 SK= 0.00E+00
 bond charge predicted
 prediction of wavefunctions
       N       E                     dE             d eps       ncg     rms          rms(c)
DAV:   1    -0.184134758449E+04    0.33130E+00   -0.21162E+01  3432   0.715E+00    0.371E+00
DAV:   2    -0.184181412509E+04   -0.46654E+00   -0.50856E+00  3468   0.224E+00    0.164E+00
DAV:   3    -0.184187695013E+04   -0.62825E-01   -0.69146E-01  5976   0.870E-01    0.123E+00
DAV:   4    -0.184187689005E+04    0.60079E-04   -0.67474E-02  6060   0.261E-01    0.924E-01
DAV:   5    -0.184187396848E+04    0.29216E-02   -0.71387E-03  5832   0.796E-02    0.636E-01
DAV:   6    -0.184187273845E+04    0.12300E-02   -0.43680E-03  4812   0.594E-02    0.306E-01
DAV:   7    -0.184187273731E+04    0.11389E-05   -0.21924E-03  4992   0.398E-02    0.103E-01
DAV:   8    -0.184187275502E+04   -0.17706E-04   -0.41146E-04  5304   0.182E-02    0.106E-01
DAV:   9    -0.184187275675E+04   -0.17334E-05   -0.25451E-05  2280   0.627E-03
     49 T=   546. E= -.18111606E+04 F= -.18418728E+04 E0= -.18418728E+04  EK= 0.30712E+02 SP= 0.00E+00 SK= 0.00E+00
 bond charge predicted
 prediction of wavefunctions
       N       E                     dE             d eps       ncg     rms          rms(c)
DAV:   1    -0.184153380210E+04    0.33895E+00   -0.25488E+01  3396   0.765E+00    0.362E+00
DAV:   2    -0.184202415743E+04   -0.49036E+00   -0.53126E+00  3432   0.230E+00    0.156E+00
DAV:   3    -0.184209040577E+04   -0.66248E-01   -0.72321E-01  5952   0.893E-01    0.124E+00
DAV:   4    -0.184209071334E+04   -0.30757E-03   -0.69511E-02  6048   0.261E-01    0.898E-01
DAV:   5    -0.184208791053E+04    0.28028E-02   -0.75972E-03  5700   0.834E-02    0.599E-01
DAV:   6    -0.184208707801E+04    0.83252E-03   -0.42900E-03  4788   0.578E-02    0.284E-01
DAV:   7    -0.184208712078E+04   -0.42766E-04   -0.13490E-03  5076   0.327E-02    0.112E-01
DAV:   8    -0.184208714794E+04   -0.27157E-04   -0.27855E-04  5184   0.154E-02    0.923E-02
DAV:   9    -0.184208714992E+04   -0.19809E-05   -0.18504E-05  2100   0.573E-03
     50 T=   555. E= -.18108838E+04 F= -.18420871E+04 E0= -.18420871E+04  EK= 0.31203E+02 SP= 0.00E+00 SK= 0.00E+00
 bond charge predicted
 prediction of wavefunctions
       N       E                     dE             d eps       ncg     rms          rms(c)
DAV:   1    -0.184172906841E+04    0.35808E+00   -0.22394E+01  3312   0.745E+00    0.379E+00
DAV:   2    -0.184222216041E+04   -0.49309E+00   -0.53816E+00  3432   0.230E+00    0.166E+00
DAV:   3    -0.184229087643E+04   -0.68716E-01   -0.75112E-01  5988   0.900E-01    0.126E+00
DAV:   4    -0.184229091286E+04   -0.36427E-04   -0.72750E-02  5988   0.272E-01    0.939E-01
DAV:   5    -0.184228809268E+04    0.28202E-02   -0.72986E-03  5784   0.815E-02    0.658E-01
DAV:   6    -0.184228667214E+04    0.14205E-02   -0.47330E-03  4656   0.622E-02    0.300E-01
DAV:   7    -0.184228673751E+04   -0.65376E-04   -0.28021E-03  5016   0.433E-02    0.106E-01
DAV:   8    -0.184228674867E+04   -0.11154E-04   -0.44454E-04  5316   0.183E-02    0.117E-01
DAV:   9    -0.184228675755E+04   -0.88822E-05   -0.30610E-05  2460   0.684E-03
     51 T=   566. E= -.18104872E+04 F= -.18422868E+04 E0= -.18422868E+04  EK= 0.31800E+02 SP= 0.00E+00 SK= 0.00E+00
 bond charge predicted
 prediction of wavefunctions
       N       E                     dE             d eps       ncg     rms          rms(c)
DAV:   1    -0.184183408204E+04    0.45267E+00   -0.24333E+01  3348   0.772E+00    0.379E+00
DAV:   2    -0.184234355598E+04   -0.50947E+00   -0.55253E+00  3444   0.235E+00    0.165E+00
DAV:   3    -0.184241291369E+04   -0.69358E-01   -0.75544E-01  6000   0.910E-01    0.127E+00
DAV:   4    -0.184241304711E+04   -0.13342E-03   -0.73941E-02  6000   0.270E-01    0.919E-01
DAV:   5    -0.184241037635E+04    0.26708E-02   -0.79148E-03  5724   0.865E-02    0.605E-01
DAV:   6    -0.184240958312E+04    0.79323E-03   -0.41184E-03  4944   0.584E-02    0.286E-01
DAV:   7    -0.184240965608E+04   -0.72955E-04   -0.14394E-03  5148   0.335E-02    0.117E-01
DAV:   8    -0.184240967305E+04   -0.16973E-04   -0.28948E-04  5280   0.154E-02    0.101E-01
DAV:   9    -0.184240967088E+04    0.21700E-05   -0.15245E-05  1908   0.562E-03
     52 T=   573. E= -.18101875E+04 F= -.18424097E+04 E0= -.18424097E+04  EK= 0.32222E+02 SP= 0.00E+00 SK= 0.00E+00
 bond charge predicted
 prediction of wavefunctions
       N       E                     dE             d eps       ncg     rms          rms(c)
DAV:   1    -0.184186671853E+04    0.54295E+00   -0.25435E+01  3372   0.788E+00    0.382E+00
DAV:   2    -0.184238491816E+04   -0.51820E+00   -0.56227E+00  3444   0.236E+00    0.165E+00
DAV:   3    -0.184245760731E+04   -0.72689E-01   -0.79227E-01  6036   0.924E-01    0.127E+00
DAV:   4    -0.184245774271E+04   -0.13540E-03   -0.76230E-02  5988   0.278E-01    0.929E-01
DAV:   5    -0.184245494383E+04    0.27989E-02   -0.80167E-03  5772   0.864E-02    0.623E-01
DAV:   6    -0.184245392905E+04    0.10148E-02   -0.43654E-03  4884   0.593E-02    0.291E-01
DAV:   7    -0.184245400334E+04   -0.74296E-04   -0.20155E-03  5076   0.383E-02    0.105E-01
DAV:   8    -0.184245401162E+04   -0.82702E-05   -0.41388E-04  5364   0.179E-02    0.108E-01
DAV:   9    -0.184245401205E+04   -0.43501E-06   -0.24258E-05  2280   0.637E-03
     53 T=   575. E= -.18101219E+04 F= -.18424540E+04 E0= -.18424540E+04  EK= 0.32332E+02 SP= 0.00E+00 SK= 0.00E+00
 bond charge predicted
 prediction of wavefunctions
       N       E                     dE             d eps       ncg     rms          rms(c)
DAV:   1    -0.184184373950E+04    0.61027E+00   -0.23306E+01  3432   0.779E+00    0.374E+00
DAV:   2    -0.184234763229E+04   -0.50389E+00   -0.54860E+00  3492   0.231E+00    0.162E+00
DAV:   3    -0.184241984670E+04   -0.72214E-01   -0.78115E-01  6060   0.914E-01    0.126E+00
DAV:   4    -0.184242003123E+04   -0.18453E-03   -0.75227E-02  5916   0.274E-01    0.911E-01
DAV:   5    -0.184241750594E+04    0.25253E-02   -0.76361E-03  5724   0.857E-02    0.620E-01
DAV:   6    -0.184241640947E+04    0.10965E-02   -0.43401E-03  4728   0.608E-02    0.277E-01
DAV:   7    -0.184241653309E+04   -0.12361E-03   -0.24196E-03  5016   0.414E-02    0.108E-01
DAV:   8    -0.184241653887E+04   -0.57792E-05   -0.47834E-04  5256   0.184E-02    0.118E-01
DAV:   9    -0.184241654422E+04   -0.53486E-05   -0.29092E-05  2328   0.700E-03
     54 T=   576. E= -.18100105E+04 F= -.18424165E+04 E0= -.18424165E+04  EK= 0.32406E+02 SP= 0.00E+00 SK= 0.00E+00
 bond charge predicted
 prediction of wavefunctions
       N       E                     dE             d eps       ncg     rms          rms(c)
DAV:   1    -0.184173405272E+04    0.68249E+00   -0.22608E+01  3468   0.774E+00    0.378E+00
DAV:   2    -0.184223532153E+04   -0.50127E+00   -0.54388E+00  3576   0.232E+00    0.163E+00
DAV:   3    -0.184230536978E+04   -0.70048E-01   -0.75879E-01  6132   0.892E-01    0.125E+00
DAV:   4    -0.184230553531E+04   -0.16552E-03   -0.71235E-02  5820   0.270E-01    0.904E-01
DAV:   5    -0.184230322344E+04    0.23119E-02   -0.74614E-03  5796   0.851E-02    0.610E-01
DAV:   6    -0.184230228162E+04    0.94181E-03   -0.39022E-03  4800   0.568E-02    0.275E-01
DAV:   7    -0.184230238417E+04   -0.10255E-03   -0.19619E-03  5160   0.367E-02    0.109E-01
DAV:   8    -0.184230238581E+04   -0.16460E-05   -0.35771E-04  5388   0.162E-02    0.107E-01
DAV:   9    -0.184230238975E+04   -0.39321E-05   -0.19393E-05  2064   0.636E-03
     55 T=   576. E= -.18099141E+04 F= -.18423024E+04 E0= -.18423024E+04  EK= 0.32388E+02 SP= 0.00E+00 SK= 0.00E+00
 bond charge predicted
 prediction of wavefunctions
       N       E                     dE             d eps       ncg     rms          rms(c)
DAV:   1    -0.184151323889E+04    0.78915E+00   -0.26538E+01  3444   0.794E+00    0.378E+00
DAV:   2    -0.184203565736E+04   -0.52242E+00   -0.56430E+00  3528   0.237E+00    0.163E+00
DAV:   3    -0.184211023782E+04   -0.74580E-01   -0.80811E-01  6108   0.927E-01    0.126E+00
DAV:   4    -0.184211048627E+04   -0.24844E-03   -0.74198E-02  5868   0.277E-01    0.909E-01
DAV:   5    -0.184210807551E+04    0.24108E-02   -0.75260E-03  5808   0.850E-02    0.621E-01
DAV:   6    -0.184210705196E+04    0.10236E-02   -0.42395E-03  4788   0.591E-02    0.272E-01
DAV:   7    -0.184210717090E+04   -0.11894E-03   -0.21535E-03  5100   0.381E-02    0.109E-01
DAV:   8    -0.184210717188E+04   -0.97958E-06   -0.33685E-04  5304   0.155E-02    0.110E-01
DAV:   9    -0.184210717821E+04   -0.63316E-05   -0.19865E-05  2064   0.634E-03
     56 T=   574. E= -.18098205E+04 F= -.18421072E+04 E0= -.18421072E+04  EK= 0.32287E+02 SP= 0.00E+00 SK= 0.00E+00
 bond charge predicted
 prediction of wavefunctions
       N       E                     dE             d eps       ncg     rms          rms(c)
DAV:   1    -0.184126693805E+04    0.84023E+00   -0.24295E+01  3432   0.777E+00    0.359E+00
DAV:   2    -0.184177303944E+04   -0.50610E+00   -0.54951E+00  3528   0.233E+00    0.155E+00
DAV:   3    -0.184184534049E+04   -0.72301E-01   -0.78349E-01  6120   0.898E-01    0.122E+00
DAV:   4    -0.184184557107E+04   -0.23058E-03   -0.71563E-02  5820   0.275E-01    0.875E-01
DAV:   5    -0.184184305687E+04    0.25142E-02   -0.73238E-03  5748   0.848E-02    0.597E-01
DAV:   6    -0.184184196692E+04    0.10900E-02   -0.42195E-03  4776   0.583E-02    0.270E-01
DAV:   7    -0.184184206404E+04   -0.97120E-04   -0.22789E-03  5064   0.393E-02    0.104E-01
DAV:   8    -0.184184207050E+04   -0.64556E-05   -0.45180E-04  5460   0.173E-02    0.107E-01
DAV:   9    -0.184184207752E+04   -0.70202E-05   -0.30164E-05  2400   0.716E-03
     57 T=   568. E= -.18098947E+04 F= -.18418421E+04 E0= -.18418421E+04  EK= 0.31947E+02 SP= 0.00E+00 SK= 0.00E+00
 bond charge predicted
 prediction of wavefunctions
       N       E                     dE             d eps       ncg     rms          rms(c)
DAV:   1    -0.184094119416E+04    0.90088E+00   -0.27612E+01  3420   0.785E+00    0.383E+00
DAV:   2    -0.184146921202E+04   -0.52802E+00   -0.56914E+00  3564   0.239E+00    0.165E+00
DAV:   3    -0.184154659819E+04   -0.77386E-01   -0.82860E-01  6132   0.925E-01    0.129E+00
DAV:   4    -0.184154706736E+04   -0.46918E-03   -0.74703E-02  5808   0.281E-01    0.926E-01
DAV:   5    -0.184154480174E+04    0.22656E-02   -0.75571E-03  5784   0.876E-02    0.631E-01
DAV:   6    -0.184154379024E+04    0.10115E-02   -0.41133E-03  4680   0.609E-02    0.274E-01
DAV:   7    -0.184154394371E+04   -0.15347E-03   -0.24009E-03  4932   0.410E-02    0.114E-01
DAV:   8    -0.184154394812E+04   -0.44081E-05   -0.46074E-04  5460   0.177E-02    0.117E-01
DAV:   9    -0.184154395837E+04   -0.10253E-04   -0.35869E-05  2640   0.714E-03    0.977E-02
DAV:  10    -0.184154394810E+04    0.10267E-04   -0.85814E-05  3588   0.753E-03    0.542E-02
DAV:  11    -0.184154391331E+04    0.34793E-04   -0.28073E-05  2244   0.621E-03    0.400E-02
DAV:  12    -0.184154390177E+04    0.11537E-04   -0.37178E-05  2496   0.662E-03    0.282E-02
DAV:  13    -0.184154389821E+04    0.35635E-05   -0.32818E-05  2472   0.536E-03
     58 T=   566. E= -.18097191E+04 F= -.18415439E+04 E0= -.18415439E+04  EK= 0.31825E+02 SP= 0.00E+00 SK= 0.00E+00
 bond charge predicted
 prediction of wavefunctions
       N       E                     dE             d eps       ncg     rms          rms(c)
DAV:   1    -0.184065461063E+04    0.88929E+00   -0.24591E+01  3408   0.778E+00    0.372E+00
DAV:   2    -0.184118219568E+04   -0.52759E+00   -0.57037E+00  3492   0.237E+00    0.163E+00
DAV:   3    -0.184125715525E+04   -0.74960E-01   -0.81427E-01  6084   0.917E-01    0.124E+00
DAV:   4    -0.184125742917E+04   -0.27391E-03   -0.74614E-02  5784   0.283E-01    0.915E-01
DAV:   5    -0.184125490167E+04    0.25275E-02   -0.73861E-03  5820   0.864E-02    0.651E-01
DAV:   6    -0.184125346746E+04    0.14342E-02   -0.44109E-03  4680   0.612E-02    0.296E-01
DAV:   7    -0.184125352914E+04   -0.61679E-04   -0.30191E-03  5016   0.439E-02    0.109E-01
DAV:   8    -0.184125353881E+04   -0.96732E-05   -0.45631E-04  5340   0.177E-02    0.117E-01
DAV:   9    -0.184125355595E+04   -0.17139E-04   -0.46793E-05  3000   0.741E-03    0.949E-02
DAV:  10    -0.184125354365E+04    0.12298E-04   -0.39707E-05  2652   0.624E-03    0.577E-02
DAV:  11    -0.184125350997E+04    0.33682E-04   -0.55335E-05  3432   0.750E-03    0.365E-02
DAV:  12    -0.184125350793E+04    0.20388E-05   -0.12569E-05  1800   0.439E-03
     59 T=   567. E= -.18093542E+04 F= -.18412535E+04 E0= -.18412535E+04  EK= 0.31899E+02 SP= 0.00E+00 SK= 0.00E+00
 bond charge predicted
 prediction of wavefunctions
       N       E                     dE             d eps       ncg     rms          rms(c)
DAV:   1    -0.184035613799E+04    0.89737E+00   -0.25184E+01  3384   0.767E+00    0.366E+00
DAV:   2    -0.184087862445E+04   -0.52249E+00   -0.56590E+00  3516   0.235E+00    0.160E+00
DAV:   3    -0.184095774662E+04   -0.79122E-01   -0.85133E-01  6072   0.933E-01    0.123E+00
DAV:   4    -0.184095810471E+04   -0.35809E-03   -0.76566E-02  5856   0.286E-01    0.888E-01
DAV:   5    -0.184095582192E+04    0.22828E-02   -0.72502E-03  5808   0.841E-02    0.623E-01
DAV:   6    -0.184095455481E+04    0.12671E-02   -0.42641E-03  4716   0.601E-02    0.274E-01
DAV:   7    -0.184095468340E+04   -0.12859E-03   -0.27553E-03  5004   0.416E-02    0.113E-01
DAV:   8    -0.184095469352E+04   -0.10122E-04   -0.42964E-04  5364   0.169E-02    0.116E-01
DAV:   9    -0.184095471230E+04   -0.18785E-04   -0.50178E-05  3108   0.751E-03    0.926E-02
DAV:  10    -0.184095468349E+04    0.28814E-04   -0.25012E-05  2052   0.603E-03    0.579E-02
DAV:  11    -0.184095464965E+04    0.33845E-04   -0.84769E-05  3960   0.813E-03    0.331E-02
DAV:  12    -0.184095465067E+04   -0.10251E-05   -0.96510E-06  1824   0.398E-03
     60 T=   560. E= -.18094655E+04 F= -.18409547E+04 E0= -.18409547E+04  EK= 0.31489E+02 SP= 0.00E+00 SK= 0.00E+00
 bond charge predicted
 prediction of wavefunctions
       N       E                     dE             d eps       ncg     rms          rms(c)
DAV:   1    -0.184014568716E+04    0.80896E+00   -0.23602E+01  3336   0.754E+00    0.358E+00
DAV:   2    -0.184064754273E+04   -0.50186E+00   -0.54478E+00  3540   0.230E+00    0.157E+00
DAV:   3    -0.184072033666E+04   -0.72794E-01   -0.79031E-01  6144   0.915E-01    0.121E+00
DAV:   4    -0.184072048721E+04   -0.15055E-03   -0.72632E-02  5904   0.278E-01    0.891E-01
DAV:   5    -0.184071785990E+04    0.26273E-02   -0.69633E-03  5748   0.814E-02    0.633E-01
DAV:   6    -0.184071640647E+04    0.14534E-02   -0.47999E-03  4752   0.640E-02    0.282E-01
DAV:   7    -0.184071648497E+04   -0.78503E-04   -0.28456E-03  5064   0.436E-02    0.109E-01
DAV:   8    -0.184071650209E+04   -0.17116E-04   -0.43479E-04  5280   0.174E-02    0.119E-01
DAV:   9    -0.184071651180E+04   -0.97141E-05   -0.31837E-05  2496   0.700E-03
     61 T=   550. E= -.18097718E+04 F= -.18407165E+04 E0= -.18407165E+04  EK= 0.30945E+02 SP= 0.00E+00 SK= 0.00E+00
 bond charge predicted
 prediction of wavefunctions
       N       E                     dE             d eps       ncg     rms          rms(c)
DAV:   1    -0.183991610291E+04    0.80040E+00   -0.25075E+01  3348   0.762E+00    0.368E+00
DAV:   2    -0.184042312091E+04   -0.50702E+00   -0.54746E+00  3504   0.233E+00    0.159E+00
DAV:   3    -0.184049488738E+04   -0.71766E-01   -0.77672E-01  6108   0.903E-01    0.123E+00
DAV:   4    -0.184049512354E+04   -0.23615E-03   -0.71080E-02  5856   0.275E-01    0.892E-01
DAV:   5    -0.184049271269E+04    0.24109E-02   -0.72970E-03  5748   0.830E-02    0.610E-01
DAV:   6    -0.184049171192E+04    0.10008E-02   -0.42585E-03  4716   0.606E-02    0.271E-01
DAV:   7    -0.184049183537E+04   -0.12344E-03   -0.21953E-03  4980   0.405E-02    0.107E-01
DAV:   8    -0.184049184171E+04   -0.63497E-05   -0.45062E-04  5172   0.179E-02    0.114E-01
DAV:   9    -0.184049184464E+04   -0.29271E-05   -0.26372E-05  2304   0.680E-03
     62 T=   545. E= -.18098712E+04 F= -.18404918E+04 E0= -.18404918E+04  EK= 0.30621E+02 SP= 0.00E+00 SK= 0.00E+00
 bond charge predicted
 prediction of wavefunctions
       N       E                     dE             d eps       ncg     rms          rms(c)
DAV:   1    -0.183972791755E+04    0.76392E+00   -0.23915E+01  3372   0.748E+00    0.367E+00
DAV:   2    -0.184022668872E+04   -0.49877E+00   -0.54029E+00  3492   0.228E+00    0.161E+00
DAV:   3    -0.184029948550E+04   -0.72797E-01   -0.79038E-01  6120   0.909E-01    0.122E+00
DAV:   4    -0.184029968431E+04   -0.19881E-03   -0.73400E-02  5964   0.281E-01    0.899E-01
DAV:   5    -0.184029713525E+04    0.25491E-02   -0.70322E-03  5796   0.807E-02    0.635E-01
DAV:   6    -0.184029578838E+04    0.13469E-02   -0.46786E-03  4740   0.636E-02    0.275E-01
DAV:   7    -0.184029589747E+04   -0.10909E-03   -0.27649E-03  5028   0.434E-02    0.110E-01
DAV:   8    -0.184029591132E+04   -0.13850E-04   -0.46914E-04  5244   0.175E-02    0.121E-01
DAV:   9    -0.184029592292E+04   -0.11599E-04   -0.33743E-05  2580   0.714E-03    0.104E-01
DAV:  10    -0.184029591768E+04    0.52387E-05   -0.83697E-05  3516   0.723E-03
     63 T=   539. E= -.18099875E+04 F= -.18402959E+04 E0= -.18402959E+04  EK= 0.30308E+02 SP= 0.00E+00 SK= 0.00E+00
 bond charge predicted
 prediction of wavefunctions
       N       E                     dE             d eps       ncg     rms          rms(c)
DAV:   1    -0.183953950455E+04    0.75642E+00   -0.22589E+01  3360   0.744E+00    0.365E+00
DAV:   2    -0.184003520581E+04   -0.49570E+00   -0.53519E+00  3540   0.230E+00    0.161E+00
DAV:   3    -0.184010489558E+04   -0.69690E-01   -0.75593E-01  6156   0.903E-01    0.120E+00
DAV:   4    -0.184010517969E+04   -0.28410E-03   -0.68305E-02  5880   0.268E-01    0.894E-01
DAV:   5    -0.184010275466E+04    0.24250E-02   -0.68290E-03  5808   0.804E-02    0.625E-01
DAV:   6    -0.184010155591E+04    0.11987E-02   -0.42274E-03  4752   0.595E-02    0.282E-01
DAV:   7    -0.184010162870E+04   -0.72790E-04   -0.24077E-03  4992   0.404E-02    0.104E-01
DAV:   8    -0.184010164279E+04   -0.14086E-04   -0.42445E-04  5376   0.169E-02    0.110E-01
DAV:   9    -0.184010165097E+04   -0.81821E-05   -0.25468E-05  2232   0.703E-03
     64 T=   531. E= -.18102179E+04 F= -.18401017E+04 E0= -.18401017E+04  EK= 0.29884E+02 SP= 0.00E+00 SK= 0.00E+00
 bond charge predicted
 prediction of wavefunctions
       N       E                     dE             d eps       ncg     rms          rms(c)
DAV:   1    -0.183943630631E+04    0.66534E+00   -0.27645E+01  3384   0.758E+00    0.354E+00
DAV:   2    -0.183993948856E+04   -0.50318E+00   -0.54210E+00  3492   0.232E+00    0.154E+00
DAV:   3    -0.184001402859E+04   -0.74540E-01   -0.80029E-01  6120   0.911E-01    0.120E+00
DAV:   4    -0.184001439939E+04   -0.37080E-03   -0.72526E-02  5832   0.274E-01    0.852E-01
DAV:   5    -0.184001212855E+04    0.22708E-02   -0.75388E-03  5796   0.844E-02    0.573E-01
DAV:   6    -0.184001128105E+04    0.84750E-03   -0.40855E-03  4620   0.585E-02    0.247E-01
DAV:   7    -0.184001142895E+04   -0.14790E-03   -0.19520E-03  5076   0.372E-02    0.107E-01
DAV:   8    -0.184001142500E+04    0.39560E-05   -0.34358E-04  5304   0.155E-02    0.109E-01
DAV:   9    -0.184001142857E+04   -0.35755E-05   -0.18845E-05  2076   0.631E-03
     65 T=   534. E= -.18099898E+04 F= -.18400114E+04 E0= -.18400114E+04  EK= 0.30022E+02 SP= 0.00E+00 SK= 0.00E+00
 bond charge predicted
 prediction of wavefunctions
       N       E                     dE             d eps       ncg     rms          rms(c)
DAV:   1    -0.183941043786E+04    0.60099E+00   -0.24292E+01  3312   0.748E+00    0.355E+00
DAV:   2    -0.183990666724E+04   -0.49623E+00   -0.53429E+00  3516   0.231E+00    0.154E+00
DAV:   3    -0.183997852115E+04   -0.71854E-01   -0.77604E-01  6072   0.892E-01    0.119E+00
DAV:   4    -0.183997904880E+04   -0.52765E-03   -0.70898E-02  5904   0.273E-01    0.857E-01
DAV:   5    -0.183997671620E+04    0.23326E-02   -0.73730E-03  5736   0.829E-02    0.578E-01
DAV:   6    -0.183997585540E+04    0.86080E-03   -0.39303E-03  4776   0.576E-02    0.260E-01
DAV:   7    -0.183997596303E+04   -0.10763E-03   -0.18515E-03  5100   0.368E-02    0.103E-01
DAV:   8    -0.183997596956E+04   -0.65303E-05   -0.36765E-04  5256   0.165E-02    0.106E-01
DAV:   9    -0.183997597119E+04   -0.16221E-05   -0.19038E-05  2028   0.614E-03
     66 T=   542. E= -.18095053E+04 F= -.18399760E+04 E0= -.18399760E+04  EK= 0.30471E+02 SP= 0.00E+00 SK= 0.00E+00
 bond charge predicted
 prediction of wavefunctions
       N       E                     dE             d eps       ncg     rms          rms(c)
DAV:   1    -0.183939397925E+04    0.58199E+00   -0.23003E+01  3372   0.742E+00    0.360E+00
DAV:   2    -0.183989077296E+04   -0.49679E+00   -0.53625E+00  3492   0.228E+00    0.157E+00
DAV:   3    -0.183996229435E+04   -0.71521E-01   -0.77387E-01  6060   0.890E-01    0.120E+00
DAV:   4    -0.183996267854E+04   -0.38418E-03   -0.71654E-02  5892   0.276E-01    0.880E-01
DAV:   5    -0.183996029084E+04    0.23877E-02   -0.71123E-03  5796   0.823E-02    0.618E-01
DAV:   6    -0.183995905832E+04    0.12325E-02   -0.41305E-03  4728   0.596E-02    0.279E-01
DAV:   7    -0.183995915016E+04   -0.91840E-04   -0.27332E-03  5016   0.423E-02    0.103E-01
DAV:   8    -0.183995915928E+04   -0.91168E-05   -0.43710E-04  5184   0.178E-02    0.115E-01
DAV:   9    -0.183995916878E+04   -0.94979E-05   -0.27924E-05  2268   0.706E-03
     67 T=   543. E= -.18094319E+04 F= -.18399592E+04 E0= -.18399592E+04  EK= 0.30527E+02 SP= 0.00E+00 SK= 0.00E+00
 bond charge predicted
 prediction of wavefunctions
       N       E                     dE             d eps       ncg     rms          rms(c)
DAV:   1    -0.183937714476E+04    0.58201E+00   -0.21608E+01  3360   0.755E+00    0.347E+00
DAV:   2    -0.183987551897E+04   -0.49837E+00   -0.54246E+00  3456   0.228E+00    0.153E+00
DAV:   3    -0.183994817672E+04   -0.72658E-01   -0.79090E-01  6060   0.907E-01    0.118E+00
DAV:   4    -0.183994826968E+04   -0.92967E-04   -0.73908E-02  5952   0.283E-01    0.861E-01
DAV:   5    -0.183994558803E+04    0.26817E-02   -0.72748E-03  5700   0.820E-02    0.608E-01
DAV:   6    -0.183994408117E+04    0.15069E-02   -0.47714E-03  4752   0.625E-02    0.273E-01
DAV:   7    -0.183994415945E+04   -0.78273E-04   -0.30763E-03  4920   0.445E-02    0.104E-01
DAV:   8    -0.183994417199E+04   -0.12541E-04   -0.45663E-04  5328   0.184E-02    0.117E-01
DAV:   9    -0.183994418599E+04   -0.14006E-04   -0.34048E-05  2460   0.712E-03    0.990E-02
DAV:  10    -0.183994418283E+04    0.31624E-05   -0.68993E-05  3396   0.716E-03
     68 T=   548. E= -.18091062E+04 F= -.18399442E+04 E0= -.18399442E+04  EK= 0.30838E+02 SP= 0.00E+00 SK= 0.00E+00
 bond charge predicted
 prediction of wavefunctions
       N       E                     dE             d eps       ncg     rms          rms(c)
DAV:   1    -0.183932214256E+04    0.62204E+00   -0.27015E+01  3384   0.800E+00    0.365E+00
DAV:   2    -0.183985277737E+04   -0.53063E+00   -0.57261E+00  3504   0.239E+00    0.157E+00
DAV:   3    -0.183992899008E+04   -0.76213E-01   -0.82174E-01  6132   0.943E-01    0.124E+00
DAV:   4    -0.183992962751E+04   -0.63743E-03   -0.75300E-02  5952   0.278E-01    0.897E-01
DAV:   5    -0.183992731994E+04    0.23076E-02   -0.70654E-03  5772   0.808E-02    0.646E-01
DAV:   6    -0.183992602340E+04    0.12965E-02   -0.42808E-03  4752   0.604E-02    0.287E-01
DAV:   7    -0.183992608835E+04   -0.64946E-04   -0.25994E-03  5052   0.417E-02    0.104E-01
DAV:   8    -0.183992610665E+04   -0.18302E-04   -0.38118E-04  5496   0.174E-02    0.110E-01
DAV:   9    -0.183992611599E+04   -0.93396E-05   -0.24770E-05  2148   0.654E-03
     69 T=   558. E= -.18085783E+04 F= -.18399261E+04 E0= -.18399261E+04  EK= 0.31348E+02 SP= 0.00E+00 SK= 0.00E+00
 bond charge predicted
 prediction of wavefunctions
       N       E                     dE             d eps       ncg     rms          rms(c)
DAV:   1    -0.183936773496E+04    0.55837E+00   -0.25243E+01  3360   0.789E+00    0.369E+00
DAV:   2    -0.183989261398E+04   -0.52488E+00   -0.56770E+00  3420   0.239E+00    0.161E+00
DAV:   3    -0.183996779036E+04   -0.75176E-01   -0.81537E-01  6144   0.934E-01    0.123E+00
[...]
DAV:   5    -0.182819354626E+04    0.25968E-02   -0.10600E-02  5712   0.101E-01    0.666E-01
DAV:   6    -0.182819264851E+04    0.89775E-03   -0.48241E-03  4800   0.645E-02    0.296E-01
DAV:   7    -0.182819289607E+04   -0.24755E-03   -0.25877E-03  5016   0.423E-02    0.121E-01
DAV:   8    -0.182819288565E+04    0.10416E-04   -0.49719E-04  5508   0.195E-02    0.123E-01
DAV:   9    -0.182819288879E+04   -0.31365E-05   -0.34821E-05  2568   0.703E-03
    484 T=   744. E= -.17863523E+04 F= -.18281929E+04 E0= -.18281929E+04  EK= 0.41841E+02 SP= 0.00E+00 SK= 0.00E+00
 bond charge predicted
 prediction of wavefunctions
       N       E                     dE             d eps       ncg     rms          rms(c)
DAV:   1    -0.182706591501E+04    0.11270E+01   -0.35067E+01  3348   0.894E+00    0.419E+00
DAV:   2    -0.182773369347E+04   -0.66778E+00   -0.72022E+00  3456   0.267E+00    0.176E+00
DAV:   3    -0.182783631235E+04   -0.10262E+00   -0.10823E+00  6132   0.105E+00    0.140E+00
DAV:   4    -0.182783779651E+04   -0.14842E-02   -0.99218E-02  5796   0.317E-01    0.987E-01
DAV:   5    -0.182783543984E+04    0.23567E-02   -0.99878E-03  5844   0.977E-02    0.664E-01
DAV:   6    -0.182783452525E+04    0.91459E-03   -0.46844E-03  4776   0.634E-02    0.284E-01
DAV:   7    -0.182783476281E+04   -0.23756E-03   -0.25281E-03  5052   0.418E-02    0.122E-01
DAV:   8    -0.182783475781E+04    0.49960E-05   -0.44796E-04  5424   0.184E-02    0.124E-01
DAV:   9    -0.182783476305E+04   -0.52401E-05   -0.27061E-05  2220   0.681E-03
    485 T=   742. E= -.17861138E+04 F= -.18278348E+04 E0= -.18278348E+04  EK= 0.41721E+02 SP= 0.00E+00 SK= 0.00E+00
 bond charge predicted
 prediction of wavefunctions
       N       E                     dE             d eps       ncg     rms          rms(c)
DAV:   1    -0.182680041327E+04    0.10343E+01   -0.34880E+01  3336   0.903E+00    0.425E+00
DAV:   2    -0.182748831068E+04   -0.68790E+00   -0.74525E+00  3516   0.272E+00    0.182E+00
DAV:   3    -0.182759307115E+04   -0.10476E+00   -0.11171E+00  6108   0.107E+00    0.144E+00
DAV:   4    -0.182759424219E+04   -0.11710E-02   -0.10302E-01  5808   0.324E-01    0.102E+00
DAV:   5    -0.182759135414E+04    0.28880E-02   -0.10381E-02  5796   0.100E-01    0.691E-01
DAV:   6    -0.182759020174E+04    0.11524E-02   -0.54808E-03  4800   0.679E-02    0.299E-01
DAV:   7    -0.182759043449E+04   -0.23275E-03   -0.28871E-03  5004   0.451E-02    0.124E-01
DAV:   8    -0.182759043041E+04    0.40814E-05   -0.57596E-04  5484   0.202E-02    0.129E-01
DAV:   9    -0.182759043978E+04   -0.93778E-05   -0.51574E-05  3168   0.772E-03
    486 T=   753. E= -.17852605E+04 F= -.18275904E+04 E0= -.18275904E+04  EK= 0.42330E+02 SP= 0.00E+00 SK= 0.00E+00
 bond charge predicted
 prediction of wavefunctions
       N       E                     dE             d eps       ncg     rms          rms(c)
DAV:   1    -0.182664083317E+04    0.94960E+00   -0.33617E+01  3336   0.900E+00    0.438E+00
DAV:   2    -0.182734151986E+04   -0.70069E+00   -0.75880E+00  3468   0.277E+00    0.188E+00
DAV:   3    -0.182744521939E+04   -0.10370E+00   -0.11070E+00  6060   0.107E+00    0.145E+00
DAV:   4    -0.182744626263E+04   -0.10432E-02   -0.10454E-01  5868   0.326E-01    0.104E+00
DAV:   5    -0.182744315000E+04    0.31126E-02   -0.10837E-02  5796   0.102E-01    0.698E-01
DAV:   6    -0.182744202309E+04    0.11269E-02   -0.51757E-03  4824   0.677E-02    0.322E-01
DAV:   7    -0.182744220262E+04   -0.17953E-03   -0.28038E-03  4980   0.456E-02    0.121E-01
DAV:   8    -0.182744220747E+04   -0.48498E-05   -0.60738E-04  5448   0.212E-02    0.128E-01
DAV:   9    -0.182744220788E+04   -0.41333E-06   -0.44461E-05  2784   0.762E-03
    487 T=   759. E= -.17847885E+04 F= -.18274422E+04 E0= -.18274422E+04  EK= 0.42654E+02 SP= 0.00E+00 SK= 0.00E+00
 bond charge predicted
 prediction of wavefunctions
       N       E                     dE             d eps       ncg     rms          rms(c)
DAV:   1    -0.182653391814E+04    0.90829E+00   -0.34689E+01  3312   0.924E+00    0.429E+00
DAV:   2    -0.182723576949E+04   -0.70185E+00   -0.76193E+00  3468   0.276E+00    0.182E+00
DAV:   3    -0.182734333432E+04   -0.10756E+00   -0.11401E+00  6168   0.108E+00    0.145E+00
DAV:   4    -0.182734428454E+04   -0.95022E-03   -0.10596E-01  5796   0.332E-01    0.103E+00
DAV:   5    -0.182734150932E+04    0.27752E-02   -0.10656E-02  5760   0.101E-01    0.704E-01
DAV:   6    -0.182734017955E+04    0.13298E-02   -0.54591E-03  4668   0.695E-02    0.299E-01
DAV:   7    -0.182734044195E+04   -0.26240E-03   -0.34308E-03  4872   0.483E-02    0.132E-01
DAV:   8    -0.182734044099E+04    0.96101E-06   -0.58977E-04  5592   0.209E-02    0.136E-01
DAV:   9    -0.182734045655E+04   -0.15559E-04   -0.59253E-05  3576   0.762E-03    0.112E-01
DAV:  10    -0.182734041714E+04    0.39407E-04   -0.32447E-05  2592   0.592E-03    0.786E-02
DAV:  11    -0.182734036993E+04    0.47209E-04   -0.11218E-04  3852   0.885E-03    0.421E-02
DAV:  12    -0.182734037127E+04   -0.13380E-05   -0.19146E-05  2040   0.469E-03
    488 T=   751. E= -.17850992E+04 F= -.18273404E+04 E0= -.18273404E+04  EK= 0.42241E+02 SP= 0.00E+00 SK= 0.00E+00
 bond charge predicted
 prediction of wavefunctions
       N       E                     dE             d eps       ncg     rms          rms(c)
DAV:   1    -0.182650757110E+04    0.83280E+00   -0.29475E+01  3372   0.887E+00    0.414E+00
DAV:   2    -0.182715252173E+04   -0.64495E+00   -0.69752E+00  3444   0.263E+00    0.174E+00
DAV:   3    -0.182724703649E+04   -0.94515E-01   -0.10046E+00  6132   0.102E+00    0.140E+00
DAV:   4    -0.182724792167E+04   -0.88518E-03   -0.93443E-02  5820   0.311E-01    0.100E+00
DAV:   5    -0.182724521147E+04    0.27102E-02   -0.91305E-03  5796   0.936E-02    0.705E-01
DAV:   6    -0.182724379778E+04    0.14137E-02   -0.50693E-03  4752   0.657E-02    0.309E-01
DAV:   7    -0.182724395207E+04   -0.15429E-03   -0.31692E-03  5088   0.456E-02    0.121E-01
DAV:   8    -0.182724396408E+04   -0.12011E-04   -0.49970E-04  5412   0.190E-02    0.126E-01
DAV:   9    -0.182724397915E+04   -0.15076E-04   -0.52122E-05  3312   0.740E-03    0.103E-01
DAV:  10    -0.182724395365E+04    0.25502E-04   -0.25173E-05  2316   0.595E-03    0.683E-02
DAV:  11    -0.182724391261E+04    0.41040E-04   -0.10165E-04  4188   0.879E-03    0.386E-02
DAV:  12    -0.182724391409E+04   -0.14807E-05   -0.13869E-05  1932   0.433E-03
    489 T=   745. E= -.17853638E+04 F= -.18272439E+04 E0= -.18272439E+04  EK= 0.41880E+02 SP= 0.00E+00 SK= 0.00E+00
 bond charge predicted
 prediction of wavefunctions
       N       E                     dE             d eps       ncg     rms          rms(c)
DAV:   1    -0.182647406445E+04    0.76985E+00   -0.33876E+01  3336   0.896E+00    0.411E+00
DAV:   2    -0.182714046522E+04   -0.66640E+00   -0.72255E+00  3516   0.272E+00    0.175E+00
DAV:   3    -0.182723451862E+04   -0.94053E-01   -0.10109E+00  6096   0.104E+00    0.141E+00
DAV:   4    -0.182723519795E+04   -0.67934E-03   -0.95303E-02  5868   0.310E-01    0.100E+00
DAV:   5    -0.182723248505E+04    0.27129E-02   -0.95883E-03  5832   0.960E-02    0.708E-01
DAV:   6    -0.182723102471E+04    0.14603E-02   -0.52647E-03  4728   0.667E-02    0.312E-01
DAV:   7    -0.182723119135E+04   -0.16663E-03   -0.34339E-03  5052   0.464E-02    0.123E-01
DAV:   8    -0.182723119789E+04   -0.65397E-05   -0.49174E-04  5568   0.190E-02    0.125E-01
DAV:   9    -0.182723121527E+04   -0.17379E-04   -0.54970E-05  3432   0.766E-03    0.994E-02
DAV:  10    -0.182723118283E+04    0.32433E-04   -0.24057E-05  2112   0.601E-03    0.636E-02
DAV:  11    -0.182723114594E+04    0.36890E-04   -0.11185E-04  4212   0.895E-03    0.342E-02
DAV:  12    -0.182723114757E+04   -0.16260E-05   -0.13524E-05  1956   0.424E-03
    490 T=   744. E= -.17853839E+04 F= -.18272311E+04 E0= -.18272311E+04  EK= 0.41847E+02 SP= 0.00E+00 SK= 0.00E+00
 bond charge predicted
 prediction of wavefunctions
       N       E                     dE             d eps       ncg     rms          rms(c)
DAV:   1    -0.182646801379E+04    0.76313E+00   -0.32965E+01  3312   0.911E+00    0.432E+00
DAV:   2    -0.182714480299E+04   -0.67679E+00   -0.73396E+00  3492   0.272E+00    0.185E+00
DAV:   3    -0.182724047339E+04   -0.95670E-01   -0.10264E+00  6108   0.107E+00    0.144E+00
DAV:   4    -0.182724096935E+04   -0.49596E-03   -0.98589E-02  5916   0.311E-01    0.104E+00
DAV:   5    -0.182723789629E+04    0.30731E-02   -0.10193E-02  5760   0.984E-02    0.716E-01
DAV:   6    -0.182723665430E+04    0.12420E-02   -0.53399E-03  4776   0.682E-02    0.323E-01
DAV:   7    -0.182723681324E+04   -0.15894E-03   -0.28849E-03  5004   0.460E-02    0.120E-01
DAV:   8    -0.182723682396E+04   -0.10723E-04   -0.53218E-04  5448   0.204E-02    0.126E-01
DAV:   9    -0.182723682457E+04   -0.60981E-06   -0.33052E-05  2580   0.710E-03
    491 T=   746. E= -.17853023E+04 F= -.18272368E+04 E0= -.18272368E+04  EK= 0.41935E+02 SP= 0.00E+00 SK= 0.00E+00
 bond charge predicted
 prediction of wavefunctions
       N       E                     dE             d eps       ncg     rms          rms(c)
DAV:   1    -0.182660139358E+04    0.63543E+00   -0.35489E+01  3324   0.912E+00    0.431E+00
DAV:   2    -0.182727087342E+04   -0.66948E+00   -0.72451E+00  3468   0.272E+00    0.182E+00
DAV:   3    -0.182737021394E+04   -0.99341E-01   -0.10591E+00  6144   0.105E+00    0.144E+00
DAV:   4    -0.182737101459E+04   -0.80066E-03   -0.99440E-02  5784   0.316E-01    0.102E+00
DAV:   5    -0.182736843964E+04    0.25750E-02   -0.10419E-02  5808   0.100E-01    0.699E-01
DAV:   6    -0.182736732811E+04    0.11115E-02   -0.50419E-03  4776   0.668E-02    0.303E-01
DAV:   7    -0.182736756735E+04   -0.23923E-03   -0.30010E-03  4980   0.451E-02    0.126E-01
DAV:   8    -0.182736755825E+04    0.90990E-05   -0.50669E-04  5592   0.195E-02    0.128E-01
DAV:   9    -0.182736756560E+04   -0.73499E-05   -0.38266E-05  2724   0.723E-03
    492 T=   750. E= -.17851973E+04 F= -.18273676E+04 E0= -.18273676E+04  EK= 0.42170E+02 SP= 0.00E+00 SK= 0.00E+00
 bond charge predicted
 prediction of wavefunctions
       N       E                     dE             d eps       ncg     rms          rms(c)
DAV:   1    -0.182668782648E+04    0.67973E+00   -0.34250E+01  3312   0.905E+00    0.427E+00
DAV:   2    -0.182736786151E+04   -0.68004E+00   -0.73478E+00  3468   0.271E+00    0.180E+00
DAV:   3    -0.182746677806E+04   -0.98917E-01   -0.10568E+00  6120   0.106E+00    0.145E+00
DAV:   4    -0.182746766423E+04   -0.88617E-03   -0.99833E-02  5808   0.317E-01    0.103E+00
DAV:   5    -0.182746485028E+04    0.28139E-02   -0.10460E-02  5808   0.101E-01    0.703E-01
DAV:   6    -0.182746364251E+04    0.12078E-02   -0.52619E-03  4740   0.676E-02    0.307E-01
DAV:   7    -0.182746384285E+04   -0.20034E-03   -0.30086E-03  5064   0.456E-02    0.123E-01
DAV:   8    -0.182746384987E+04   -0.70228E-05   -0.52525E-04  5424   0.204E-02    0.130E-01
DAV:   9    -0.182746385346E+04   -0.35884E-05   -0.35331E-05  2592   0.705E-03
    493 T=   749. E= -.17853241E+04 F= -.18274639E+04 E0= -.18274639E+04  EK= 0.42140E+02 SP= 0.00E+00 SK= 0.00E+00
 bond charge predicted
 prediction of wavefunctions
       N       E                     dE             d eps       ncg     rms          rms(c)
DAV:   1    -0.182686631501E+04    0.59753E+00   -0.32067E+01  3348   0.886E+00    0.428E+00
DAV:   2    -0.182753031015E+04   -0.66400E+00   -0.71820E+00  3396   0.266E+00    0.183E+00
DAV:   3    -0.182763294224E+04   -0.10263E+00   -0.10903E+00  6108   0.106E+00    0.145E+00
DAV:   4    -0.182763410356E+04   -0.11613E-02   -0.10178E-01  5868   0.321E-01    0.103E+00
DAV:   5    -0.182763131329E+04    0.27903E-02   -0.10124E-02  5820   0.993E-02    0.712E-01
DAV:   6    -0.182763004964E+04    0.12636E-02   -0.51797E-03  4800   0.677E-02    0.315E-01
DAV:   7    -0.182763024781E+04   -0.19817E-03   -0.32243E-03  5016   0.466E-02    0.124E-01
DAV:   8    -0.182763025551E+04   -0.76997E-05   -0.56737E-04  5436   0.205E-02    0.131E-01
DAV:   9    -0.182763026015E+04   -0.46466E-05   -0.45525E-05  3132   0.731E-03
    494 T=   749. E= -.17855062E+04 F= -.18276303E+04 E0= -.18276303E+04  EK= 0.42124E+02 SP= 0.00E+00 SK= 0.00E+00
 bond charge predicted
 prediction of wavefunctions
       N       E                     dE             d eps       ncg     rms          rms(c)
DAV:   1    -0.182702021925E+04    0.61004E+00   -0.36782E+01  3300   0.920E+00    0.433E+00
DAV:   2    -0.182772944780E+04   -0.70923E+00   -0.76352E+00  3432   0.279E+00    0.182E+00
DAV:   3    -0.182783388588E+04   -0.10444E+00   -0.11101E+00  6120   0.108E+00    0.146E+00
DAV:   4    -0.182783504831E+04   -0.11624E-02   -0.10256E-01  5832   0.321E-01    0.102E+00
DAV:   5    -0.182783236406E+04    0.26842E-02   -0.10835E-02  5736   0.102E-01    0.692E-01
DAV:   6    -0.182783139162E+04    0.97244E-03   -0.49344E-03  4908   0.658E-02    0.311E-01
DAV:   7    -0.182783159667E+04   -0.20505E-03   -0.26297E-03  5052   0.432E-02    0.123E-01
DAV:   8    -0.182783159576E+04    0.91485E-06   -0.53082E-04  5532   0.197E-02    0.124E-01
DAV:   9    -0.182783159646E+04   -0.70015E-06   -0.37898E-05  2748   0.726E-03
    495 T=   751. E= -.17855863E+04 F= -.18278316E+04 E0= -.18278316E+04  EK= 0.42245E+02 SP= 0.00E+00 SK= 0.00E+00
 bond charge predicted
 prediction of wavefunctions
       N       E                     dE             d eps       ncg     rms          rms(c)
DAV:   1    -0.182719406656E+04    0.63753E+00   -0.31456E+01  3324   0.907E+00    0.422E+00
DAV:   2    -0.182788531035E+04   -0.69124E+00   -0.75042E+00  3408   0.269E+00    0.182E+00
DAV:   3    -0.182798969209E+04   -0.10438E+00   -0.11177E+00  6120   0.109E+00    0.142E+00
DAV:   4    -0.182799067755E+04   -0.98546E-03   -0.10387E-01  5784   0.326E-01    0.102E+00
DAV:   5    -0.182798754780E+04    0.31297E-02   -0.10748E-02  5856   0.102E-01    0.689E-01
DAV:   6    -0.182798626728E+04    0.12805E-02   -0.55778E-03  4740   0.672E-02    0.309E-01
DAV:   7    -0.182798646778E+04   -0.20049E-03   -0.30784E-03  5136   0.447E-02    0.121E-01
DAV:   8    -0.182798647264E+04   -0.48649E-05   -0.53444E-04  5496   0.199E-02    0.128E-01
DAV:   9    -0.182798647816E+04   -0.55186E-05   -0.40369E-05  2796   0.737E-03
    496 T=   757. E= -.17854279E+04 F= -.18279865E+04 E0= -.18279865E+04  EK= 0.42559E+02 SP= 0.00E+00 SK= 0.00E+00
 bond charge predicted
 prediction of wavefunctions
       N       E                     dE             d eps       ncg     rms          rms(c)
DAV:   1    -0.182729035418E+04    0.69612E+00   -0.30352E+01  3288   0.879E+00    0.428E+00
DAV:   2    -0.182798166639E+04   -0.69131E+00   -0.75097E+00  3576   0.271E+00    0.184E+00
DAV:   3    -0.182808380154E+04   -0.10214E+00   -0.10928E+00  6120   0.105E+00    0.145E+00
DAV:   4    -0.182808484104E+04   -0.10395E-02   -0.10142E-01  5724   0.328E-01    0.105E+00
DAV:   5    -0.182808174540E+04    0.30956E-02   -0.10152E-02  5832   0.101E-01    0.745E-01
DAV:   6    -0.182807988921E+04    0.18562E-02   -0.61967E-03  4620   0.727E-02    0.329E-01
DAV:   7    -0.182808006500E+04   -0.17580E-03   -0.43859E-03  5016   0.530E-02    0.130E-01
DAV:   8    -0.182808008608E+04   -0.21082E-04   -0.65414E-04  5472   0.217E-02    0.139E-01
DAV:   9    -0.182808010770E+04   -0.21614E-04   -0.77446E-05  3924   0.826E-03    0.110E-01
DAV:  10    -0.182808006763E+04    0.40073E-04   -0.47444E-05  3000   0.631E-03    0.725E-02
DAV:  11    -0.182808002940E+04    0.38225E-04   -0.79213E-05  3528   0.724E-03    0.412E-02
DAV:  12    -0.182808002492E+04    0.44834E-05   -0.23099E-05  1968   0.456E-03
    497 T=   764. E= -.17851253E+04 F= -.18280800E+04 E0= -.18280800E+04  EK= 0.42955E+02 SP= 0.00E+00 SK= 0.00E+00
 bond charge predicted
 prediction of wavefunctions
       N       E                     dE             d eps       ncg     rms          rms(c)
DAV:   1    -0.182726022625E+04    0.81980E+00   -0.35204E+01  3288   0.908E+00    0.429E+00
DAV:   2    -0.182797337839E+04   -0.71315E+00   -0.76888E+00  3480   0.280E+00    0.183E+00
DAV:   3    -0.182808136107E+04   -0.10798E+00   -0.11406E+00  6144   0.108E+00    0.146E+00
DAV:   4    -0.182808241934E+04   -0.10583E-02   -0.10278E-01  5832   0.325E-01    0.104E+00
DAV:   5    -0.182807971836E+04    0.27010E-02   -0.99558E-03  5760   0.980E-02    0.736E-01
DAV:   6    -0.182807820252E+04    0.15158E-02   -0.54534E-03  4728   0.683E-02    0.323E-01
DAV:   7    -0.182807838949E+04   -0.18698E-03   -0.35508E-03  5004   0.472E-02    0.131E-01
DAV:   8    -0.182807841435E+04   -0.24857E-04   -0.54802E-04  5676   0.198E-02    0.129E-01
DAV:   9    -0.182807843236E+04   -0.18014E-04   -0.60476E-05  3492   0.768E-03    0.102E-01
DAV:  10    -0.182807839684E+04    0.35526E-04   -0.23568E-05  2004   0.563E-03    0.692E-02
DAV:  11    -0.182807835401E+04    0.42827E-04   -0.11814E-04  4296   0.910E-03    0.363E-02
DAV:  12    -0.182807835568E+04   -0.16683E-05   -0.14778E-05  2004   0.422E-03
    498 T=   758. E= -.17854407E+04 F= -.18280784E+04 E0= -.18280784E+04  EK= 0.42638E+02 SP= 0.00E+00 SK= 0.00E+00
 bond charge predicted
 prediction of wavefunctions
       N       E                     dE             d eps       ncg     rms          rms(c)
DAV:   1    -0.182720966172E+04    0.86869E+00   -0.33884E+01  3300   0.906E+00    0.433E+00
DAV:   2    -0.182791550665E+04   -0.70584E+00   -0.76139E+00  3456   0.278E+00    0.186E+00
DAV:   3    -0.182802153489E+04   -0.10603E+00   -0.11189E+00  6096   0.108E+00    0.144E+00
DAV:   4    -0.182802273792E+04   -0.12030E-02   -0.10204E-01  5844   0.323E-01    0.104E+00
DAV:   5    -0.182802016848E+04    0.25694E-02   -0.99914E-03  5772   0.981E-02    0.725E-01
DAV:   6    -0.182801887968E+04    0.12888E-02   -0.51878E-03  4728   0.673E-02    0.314E-01
DAV:   7    -0.182801910746E+04   -0.22778E-03   -0.33289E-03  5076   0.455E-02    0.129E-01
DAV:   8    -0.182801911788E+04   -0.10420E-04   -0.47198E-04  5628   0.185E-02    0.130E-01
DAV:   9    -0.182801913291E+04   -0.15035E-04   -0.42726E-05  2928   0.732E-03    0.105E-01
DAV:  10    -0.182801909828E+04    0.34631E-04   -0.31393E-05  2484   0.648E-03    0.629E-02
DAV:  11    -0.182801905912E+04    0.39163E-04   -0.99946E-05  3888   0.821E-03    0.348E-02
DAV:  12    -0.182801906054E+04   -0.14186E-05   -0.11350E-05  1872   0.406E-03
    499 T=   755. E= -.17855713E+04 F= -.18280191E+04 E0= -.18280191E+04  EK= 0.42448E+02 SP= 0.00E+00 SK= 0.00E+00
 bond charge predicted
 prediction of wavefunctions
       N       E                     dE             d eps       ncg     rms          rms(c)
DAV:   1    -0.182713285198E+04    0.88621E+00   -0.33645E+01  3312   0.895E+00    0.415E+00
DAV:   2    -0.182782772699E+04   -0.69488E+00   -0.75537E+00  3504   0.272E+00    0.182E+00
DAV:   3    -0.182793413216E+04   -0.10641E+00   -0.11407E+00  6132   0.107E+00    0.141E+00
DAV:   4    -0.182793501564E+04   -0.88348E-03   -0.10278E-01  5868   0.330E-01    0.101E+00
DAV:   5    -0.182793200588E+04    0.30098E-02   -0.99186E-03  5784   0.961E-02    0.718E-01
DAV:   6    -0.182793036296E+04    0.16429E-02   -0.57168E-03  4800   0.682E-02    0.325E-01
DAV:   7    -0.182793052471E+04   -0.16175E-03   -0.37872E-03  5088   0.482E-02    0.125E-01
DAV:   8    -0.182793054360E+04   -0.18892E-04   -0.50763E-04  5628   0.196E-02    0.130E-01
DAV:   9    -0.182793056274E+04   -0.19136E-04   -0.56954E-05  3408   0.762E-03    0.103E-01
DAV:  10    -0.182793053130E+04    0.31433E-04   -0.23698E-05  2064   0.560E-03    0.674E-02
DAV:  11    -0.182793049270E+04    0.38608E-04   -0.10780E-04  4284   0.858E-03    0.358E-02
DAV:  12    -0.182793049405E+04   -0.13564E-05   -0.11893E-05  1956   0.388E-03
    500 T=   756. E= -.17854432E+04 F= -.18279305E+04 E0= -.18279305E+04  EK= 0.42487E+02 SP= 0.00E+00 SK= 0.00E+00
 bond charge predicted
 prediction of wavefunctions
 wavefunctions rotated
