LAMMPS (7 Aug 2019)
  using 1 OpenMP thread(s) per MPI task

# Input written to comply with LAMMPS 2017-08-11 00:00:00

# Atomic Configuration
units           metal
boundary        p p p
box             tilt large
atom_style      charge
read_data       triclinic_8x8x8.lmp
  orthogonal box = (0 0 0) to (83.2296 83.2296 83.2296)
  4 by 5 by 8 MPI processor grid
  reading atoms ...
  27648 atoms
  read_data CPU = 0.050113 secs
group           lithium type 1
8704 atoms in group lithium
group           scandium type 2
2560 atoms in group scandium
group           chloride type 3
16384 atoms in group chloride
variable        T1 equal 600
variable        dt equal 0.001

# Potential Setup
pair_style      buck/coul/long 12.0
pair_coeff      * * 0.0 1.0 0.0
pair_coeff      1 1    360.530000  0.161000   0.000000 # Li Li
pair_coeff      1 3    421.040000  0.344000   0.000000 # Li Cl
pair_coeff      3 3   1227.200000  0.321000  14.530000 # Cl Cl
pair_coeff      2 3  12131.350000  0.250700   0.000000 # Sc Cl

kspace_style    pppm 1e-05

# General Setup
timestep        ${dt}
timestep        0.001

# Thermodynamic Information Output
thermo_style    custom step temp epair emol etotal press lx ly lz fmax cpu cpuremain
thermo          1000

# Intial Atom Velocity
velocity        all create ${T1} 557327 dist gaussian rot yes
velocity        all create 600 557327 dist gaussian rot yes

# Stage 0: npt_equilibriation
restart         0
fix             int all npt aniso 1.0 1.0 $(1000*dt) temp ${T1} ${T1} $(100*dt)
fix             int all npt aniso 1.0 1.0 1 temp ${T1} ${T1} $(100*dt)
fix             int all npt aniso 1.0 1.0 1 temp 600 ${T1} $(100*dt)
fix             int all npt aniso 1.0 1.0 1 temp 600 600 $(100*dt)
fix             int all npt aniso 1.0 1.0 1 temp 600 600 0.10000000000000000555
run             50000
PPPM initialization ...
  using 12-bit tables for long-range coulomb (../kspace.cpp:323)
  G vector (1/distance) = 0.264753
  grid = 72 72 72
  stencil order = 5
  estimated absolute RMS force accuracy = 0.000184939
  estimated relative force accuracy = 1.28433e-05
  using double precision MKL FFT
  3d grid and FFT values/proc = 8400 2880
Neighbor list info ...
  update every 1 steps, delay 10 steps, check yes
  max neighbors/atom: 2000, page size: 100000
  master list distance cutoff = 14
  ghost atom cutoff = 14
  binsize = 7, bins = 12 12 12
  1 neighbor lists, perpetual/occasional/extra = 1 0 0
  (1) pair buck/coul/long, perpetual
      attributes: half, newton on
      pair build: half/bin/atomonly/newton
      stencil: half/bin/3d/newton
      bin: standard
Per MPI rank memory allocation (min/avg/max) = 3.936 | 4.018 | 4.376 Mbytes
Step Temp E_pair E_mol TotEng Press Lx Ly Lz Fmax CPU CPULeft 
       0          600   -168073.94            0   -165929.74   -5735.9298      83.2296      83.2296      83.2296    5.7883005            0            0 
    1000    612.55241   -191423.42            0   -189234.37   -358.79058    87.439592    88.954781    89.117812    4.0870487    5.5054491    269.76705 
    2000    593.60892   -191811.74            0   -189690.38   -76.045924    87.478416    88.806326    89.091981     5.235791    11.521333    276.51201 
    3000    602.91398    -191904.7            0   -189750.09   -533.64645    87.641491    88.706882    89.086745    4.9735885    17.034019    266.86631 
    4000    597.53986   -192018.94            0   -189883.54    143.12704    87.525566    88.595797    89.004634    4.0657041    22.245842    255.82719 
    5000    600.94451   -192025.33            0   -189877.76    238.65856    87.670782    88.500689    88.946241     4.895163    27.472941    247.25648 
    6000    599.65915    -192076.4            0   -189933.43   -280.36007    87.582813    88.664896    88.805334    4.2169481    32.662859    239.52764 
    7000    602.13967   -192105.28            0   -189953.44   -273.35991    87.809441    88.558494    88.674306     4.121406    37.962481     233.1981 
    8000     601.7417    -192135.3            0   -189984.88    323.91353    87.643398    88.326924    88.752706    4.3109409     43.11044    226.32982 
    9000    600.88223   -192159.95            0    -190012.6   -15.075118    87.559589    88.476638    88.717313    4.7259457    48.839505    222.49108 
   10000    602.75056   -192177.06            0   -190023.03    199.10641    87.672259     88.37792    88.811721    4.0781863    54.583819    218.33528 
   11000    596.12194   -192160.58            0   -190030.25    -492.1289    87.507561    88.585619    88.897583     4.381189    59.925926    212.46465 
   12000    598.63648   -192179.96            0   -190040.64   -167.58973    87.564481    88.463982    88.839588    4.0163653    65.175392    206.38874 
   13000    596.58683   -192169.38            0   -190037.38   -88.606681    87.640822    88.426767    88.706906    4.3716145    70.337622     200.1917 
   14000    600.16356   -192199.94            0   -190055.16    -79.16862    87.733513    88.341659    88.716022    4.2357871    75.559535    194.29595 
   15000    599.09911   -192200.79            0   -190059.81    131.50481     87.35061    88.275092     88.86788    4.2348063    80.726916    188.36281 
   16000    599.59313   -192205.74            0      -190063    120.11661     87.35863    88.139809    88.955623    4.2630919     86.03897    182.83281 
   17000    600.22687   -192227.48            0   -190082.48   -185.92272    87.388551    88.404647    88.824118    4.5882973    92.022666    178.63224 
   18000    605.14253   -192238.59            0   -190076.02    121.26712    87.458773    88.504042    88.569312    4.4378108    97.511792     173.3543 
   19000     599.0725   -192223.63            0   -190082.75    229.97559    87.513869    88.371925    88.575063    3.9865786    102.62087    167.43406 
   20000    597.91443   -192241.03            0   -190104.29    42.033592    87.582695    88.261232    88.678207    4.1132504    107.82001    161.73002 
   21000    597.62194    -192229.3            0   -190093.61    66.828465    87.452196    88.408171    88.613744    5.0864083    112.87565     155.8759 
   22000    598.13195   -192261.46            0   -190123.94    -163.6606    87.522592    88.196063     88.65102    4.2077449     118.0842    150.28898 
   23000     595.3751   -192245.31            0   -190117.64    -110.2417    87.529407     88.20564    88.621795    4.3742209    123.23937    144.67231 
   24000    604.94194   -192253.93            0   -190092.08   -11.448936    87.438089    88.213935     88.56364    4.1996316    129.02084    139.77258 
   25000    597.28676   -192270.59            0   -190136.09   -87.350376    87.664368    88.300707    88.336759    4.4146489    134.65762    134.65763 
   26000    601.42634    -192259.5            0   -190110.21   -70.296057    87.668789    88.340273    88.384603    4.5413221     140.1339    129.35437 
   27000    599.11071   -192269.27            0   -190128.25   -8.8427376     87.57208    88.301286    88.192296     4.515234    145.29534     123.7701 
   28000    593.50016   -192300.73            0   -190179.76    60.603985    87.578117    88.238153    88.356454    4.3593678     150.6815    118.39261 
   29000    599.59753    -192272.8            0   -190130.04   -203.33534    87.479099    88.168426    88.528128      4.27029    155.80047    112.82103 
   30000    599.44336   -192275.81            0    -190133.6   -239.51833    87.694537      88.0486    88.519063    3.7731024    160.82018    107.21345 
   31000    595.48505   -192301.04            0   -190172.98   -358.80901    87.509587    88.191898     88.53068    4.2284124     166.1518    101.83498 
   32000     604.1278   -192294.58            0   -190135.63    39.698884    87.585912    88.041344    88.491654    4.2595198    172.09389    96.802816 
   33000    601.10544   -192296.59            0   -190148.44    316.17299    87.645635    88.023556    88.479982    4.5681741    177.57029    91.475602 
   34000    603.00331   -192289.19            0   -190134.27    109.44453    87.770343    88.050186    88.292536     4.711457    182.66114    85.958184 
   35000     601.4303   -192290.46            0   -190141.15    184.41951    87.693228    88.114133    88.211176    3.8889669    187.80402    80.487437 
   36000    600.73322   -192300.19            0   -190153.37   -4.6890055    87.794638    88.175984    88.156534    4.1811413    193.02424    75.064983 
   37000    599.36622   -192294.04            0   -190152.11    202.58798    87.851227    88.121077    88.205886    4.3019861    198.12073    69.609988 
   38000    596.25433   -192269.96            0   -190139.16   -317.67344    87.811238    88.065716     88.45746    4.3680894    203.31758    64.205553 
   39000    598.48584   -192308.92            0   -190170.13   -470.55557    87.880669     88.16028    88.306797     4.473414    209.09796    58.976348 
   40000     595.8819    -192304.7            0   -190175.22   -144.97089    87.731071    88.186992    88.350381    5.0357908    214.61681    53.654202 
   41000    599.45686   -192295.86            0   -190153.61    314.31396    87.947647    88.189438    88.190873    4.5282161    219.85919    48.261774 
   42000    602.54553   -192295.59            0    -190142.3   -19.385258    87.752091    87.989724    88.450728    3.6218442    224.87345    42.833038 
   43000    594.31135   -192289.77            0   -190165.91    308.93384     87.82713    87.791092    88.529371    4.1655746    229.91798    37.428509 
   44000    596.28171   -192285.62            0   -190154.72   -5.4171863    87.834313    87.915647    88.442878    5.4909728    235.02941    32.049466 
   45000    600.29148   -192303.88            0   -190158.65    125.46746    87.812016    87.991061    88.370127     3.975339    240.17544     26.68616 
   46000    603.16203    -192294.9            0   -190139.41    209.67214    87.698345    87.830632    88.678974    5.1636431    245.51729     21.34933 
   47000     599.0126   -192312.02            0   -190171.36   -404.69537    87.801371    87.864121    88.554233    3.9287777    251.40706    16.047259 
   48000    606.76912   -192326.03            0   -190157.65    46.498157    87.695134    87.912995    88.540374    4.4020296    256.92878    10.705366 
   49000    600.42513   -192321.14            0   -190175.43    140.53673    87.771375    87.941432    88.370002    4.1738106    262.09631    5.3489044 
   50000    594.64004   -192298.45            0   -190173.41   -206.33628    87.770595    87.888674    88.284775    4.6922188    267.18593            0 
Loop time of 267.186 on 160 procs for 50000 steps with 27648 atoms

Performance: 16.169 ns/day, 1.484 hours/ns, 187.135 timesteps/s
98.8% CPU use with 160 MPI tasks x 1 OpenMP threads

MPI task timing breakdown:
Section |  min time  |  avg time  |  max time  |%varavg| %total
---------------------------------------------------------------
Pair    | 47.199     | 54.295     | 62.826     |  46.7 | 20.32
Kspace  | 143.68     | 152.45     | 160.37     |  28.5 | 57.06
Neigh   | 1.5756     | 1.717      | 1.9146     |   5.7 |  0.64
Comm    | 29.084     | 30.979     | 32.343     |  13.1 | 11.59
Output  | 0.0033951  | 0.0034457  | 0.0045898  |   0.2 |  0.00
Modify  | 18.664     | 21.342     | 25.445     |  38.9 |  7.99
Other   |            | 6.399      |            |       |  2.40

Nlocal:    172.8 ave 185 max 155 min
Histogram: 1 0 5 20 20 33 28 24 18 11
Nghost:    3411.06 ave 3465 max 3342 min
Histogram: 2 2 10 16 26 36 35 15 13 5
Neighs:    40248.9 ave 46085 max 34639 min
Histogram: 7 15 18 21 28 17 20 11 13 10

Total # of neighbors = 6439823
Ave neighs/atom = 232.922
Neighbor list builds = 1826
Dangerous builds = 8

# Stage 1: nvt_equilibriation
unfix           int
restart         0
fix             int all nvt temp ${T1} ${T1} $(100*dt)
fix             int all nvt temp 600 ${T1} $(100*dt)
fix             int all nvt temp 600 600 $(100*dt)
fix             int all nvt temp 600 600 0.10000000000000000555
run             50000
PPPM initialization ...
  using 12-bit tables for long-range coulomb (../kspace.cpp:323)
  G vector (1/distance) = 0.263874
  grid = 75 75 75
  stencil order = 5
  estimated absolute RMS force accuracy = 0.000181796
  estimated relative force accuracy = 1.2625e-05
  using double precision MKL FFT
  3d grid and FFT values/proc = 9152 3000
Per MPI rank memory allocation (min/avg/max) = 3.985 | 4.156 | 4.445 Mbytes
Step Temp E_pair E_mol TotEng Press Lx Ly Lz Fmax CPU CPULeft 
   50000    594.64004   -192298.44            0    -190173.4   -205.85443    87.770595    87.888674    88.284775    4.6922518            0            0 
   51000    597.46466   -192316.85            0   -190181.72    98.777198    87.770595    87.888674    88.284775    4.2480077    4.4439089    217.75158 
   52000     597.6521   -192315.63            0   -190179.82   -21.958245    87.770595    87.888674    88.284775    4.0999216     9.003345    216.08028 
   53000    600.56287    -192323.8            0    -190177.6   -129.03887    87.770595    87.888674    88.284775    4.3384609    13.559488    212.43202 
   54000    593.85234   -192303.38            0   -190181.16    38.867669    87.770595    87.888674    88.284775      4.62335      18.4235    211.87026 
   55000    603.79188   -192300.15            0   -190142.41    222.42854    87.770595    87.888674    88.284775    4.3906029    23.654273    212.88847 
   56000    597.22385   -192314.92            0   -190180.65   -44.404883    87.770595    87.888674    88.284775    4.0836004    28.633958    209.98236 
   57000    600.68197    -192348.4            0   -190201.77    109.96663    87.770595    87.888674    88.284775    4.3661308    33.147872    203.62265 
   58000    596.37157   -192342.05            0   -190210.82   -65.063524    87.770595    87.888674    88.284775    3.8869129    37.656846    197.69845 
   59000    600.63703   -192323.72            0   -190177.25    62.465583    87.770595    87.888674    88.284775    4.2750341    42.187011    192.18528 
   60000    597.80089   -192323.64            0   -190187.31    114.87894    87.770595    87.888674    88.284775    4.2070849    46.594043    186.37618 
   61000    599.13826   -192311.77            0   -190170.66    182.20431    87.770595    87.888674    88.284775    4.6978312    51.015489     180.8731 
   62000    600.30526   -192347.13            0   -190201.84   -162.93899    87.770595    87.888674    88.284775    3.9595838     55.63384    176.17383 
   63000    601.89206   -192325.05            0   -190174.09   -50.734859    87.770595    87.888674    88.284775    3.9873696     60.59732     172.4693 
   64000    595.31598   -192317.43            0   -190189.98   -133.90077    87.770595    87.888674    88.284775    4.1267481    65.592814    168.66724 
   65000    597.82558   -192329.05            0   -190192.62   -195.94481    87.770595    87.888674    88.284775     4.576781    70.397003    164.25968 
   66000    597.36762    -192319.2            0   -190184.42    33.132126    87.770595    87.888674    88.284775    4.1608438    74.791839    158.93266 
   67000    597.62046   -192308.59            0    -190172.9    -365.2284    87.770595    87.888674    88.284775    5.5848127    79.308179    153.95117 
   68000    603.13068   -192324.23            0   -190168.84    50.236676    87.770595    87.888674    88.284775    4.3492535    83.674151    148.75405 
   69000    600.46949   -192315.64            0   -190169.77    21.753579    87.770595    87.888674    88.284775    4.5499982    88.070454     143.6939 
   70000    600.61857   -192344.19            0   -190197.78   -436.29376    87.770595    87.888674    88.284775    4.1172416    92.592727    138.88909 
   71000     606.0598   -192334.92            0   -190169.07   -67.966303    87.770595    87.888674    88.284775    4.5980308    97.355874    134.44383 
   72000    602.62985   -192343.39            0    -190189.8    -101.1473    87.770595    87.888674    88.284775    4.6266619      102.495    130.44818 
   73000    598.15936   -192336.24            0   -190198.62   -300.01043    87.770595    87.888674    88.284775    5.0280923    107.53284     126.2342 
   74000    603.91563   -192338.55            0   -190180.37   -249.08136    87.770595    87.888674    88.284775    4.2226813    112.17546    121.52341 
   75000    602.24163   -192335.53            0   -190183.33   -249.75812    87.770595    87.888674    88.284775    4.8346589    116.61652    116.61652 
   76000    596.53153   -192332.82            0   -190201.02   -263.22645    87.770595    87.888674    88.284775    4.2311552    121.10199    111.78646 
   77000    597.44484   -192330.63            0   -190195.57    6.0368353    87.770595    87.888674    88.284775    3.8956522    125.56755    106.96495 
   78000    603.73391   -192339.63            0    -190182.1   -3.2515921    87.770595    87.888674    88.284775    4.5360878    129.98747    102.13301 
   79000    599.73884   -192340.34            0   -190197.08   -324.58488    87.770595    87.888674    88.284775    4.3311527    134.60899    97.475479 
   80000    602.22131   -192328.86            0   -190176.73    3.5883698    87.770595    87.888674    88.284775    4.3041665       139.56    93.040001 
   81000    601.59225   -192343.26            0   -190193.38    20.659261    87.770595    87.888674    88.284775    4.2535043    144.72894    88.704834 
   82000     602.9307   -192306.75            0   -190152.08    12.796786    87.770595    87.888674    88.284775    4.0263632    149.52953    84.110359 
   83000    598.76567   -192340.47            0   -190200.69     319.2738    87.770595    87.888674    88.284775    4.0669869    154.01039    79.338686 
   84000    598.59103   -192321.63            0   -190182.47   -246.24336    87.770595    87.888674    88.284775    4.1746451    158.41501    74.548242 
   85000    599.21655   -192333.41            0   -190192.02   -155.23136    87.770595    87.888674    88.284775    4.6263116    162.81898    69.779562 
   86000    601.44142   -192354.61            0   -190205.27    133.03181    87.770595    87.888674    88.284775    4.1396718    167.29797    65.060321 
   87000    599.44576   -192328.98            0   -190186.76   -153.68747    87.770595    87.888674    88.284775    4.2171865      171.846    60.378326 
   88000    606.39056   -192346.05            0   -190179.02    -233.5456    87.770595    87.888674    88.284775     4.883433    176.58111    55.762455 
   89000    600.17662   -192341.56            0   -190196.74   -475.07933    87.770595    87.888674    88.284775    4.3710103    181.68677    51.244987 
   90000    601.21547   -192350.22            0   -190201.68   -458.86922    87.770595    87.888674    88.284775    4.4257858    186.66384    46.665961 
   91000    596.26048   -192367.11            0   -190236.28   -434.67906    87.770595    87.888674    88.284775    4.0361275    191.44086    42.023605 
   92000    601.66303   -192318.88            0   -190168.74   -328.27816    87.770595    87.888674    88.284775    4.3115777    195.93333    37.320635 
   93000    598.23571      -192340            0   -190202.11    -531.7183    87.770595    87.888674    88.284775    4.2722072    200.30622    32.607989 
   94000     598.9804   -192318.76            0   -190178.21   -386.77849    87.770595    87.888674    88.284775    4.3505289    204.70775    27.914693 
   95000    593.07461   -192361.24            0   -190241.79   -510.12733    87.770595    87.888674    88.284775    3.8875488     209.2137    23.245966 
   96000    601.38607   -192326.07            0   -190176.92   -129.51814    87.770595    87.888674    88.284775    4.8384854    213.67948    18.580824 
   97000    601.03783   -192357.51            0   -190209.61    -237.2593    87.770595    87.888674    88.284775    3.8542352    218.44854    13.943524 
   98000    599.96122   -192333.76            0    -190189.7   -519.76182    87.770595    87.888674    88.284775    4.0490753    223.70571    9.3210711 
   99000    596.66061   -192335.71            0   -190203.45   -339.91209    87.770595    87.888674    88.284775    5.2563386    228.48353    4.6629293 
  100000    602.68435   -192306.78            0      -190153   -303.89956    87.770595    87.888674    88.284775    4.1178922     233.0689            0 
Loop time of 233.069 on 160 procs for 50000 steps with 27648 atoms

Performance: 18.535 ns/day, 1.295 hours/ns, 214.529 timesteps/s
98.7% CPU use with 160 MPI tasks x 1 OpenMP threads

MPI task timing breakdown:
Section |  min time  |  avg time  |  max time  |%varavg| %total
---------------------------------------------------------------
Pair    | 46.308     | 52.705     | 60.69      |  41.1 | 22.61
Kspace  | 133.85     | 141.16     | 147.07     |  26.4 | 60.57
Neigh   | 1.5453     | 1.6433     | 1.7581     |   4.0 |  0.71
Comm    | 28.099     | 30.136     | 34.484     |  18.6 | 12.93
Output  | 0.0034289  | 0.0034656  | 0.0041037  |   0.1 |  0.00
Modify  | 5.5095     | 6.6775     | 7.6351     |  17.7 |  2.87
Other   |            | 0.7418     |            |       |  0.32

Nlocal:    172.8 ave 187 max 156 min
Histogram: 2 4 7 18 33 35 30 20 10 1
Nghost:    3412.47 ave 3466 max 3364 min
Histogram: 4 11 20 20 24 38 17 20 5 1
Neighs:    40244.3 ave 45958 max 34798 min
Histogram: 4 15 23 26 17 16 21 18 16 4

Total # of neighbors = 6439095
Ave neighs/atom = 232.896
Neighbor list builds = 1787
Dangerous builds = 0

# Stage 2: main_nvt_simulation
unfix           int
compute         lithiummsd lithium msd com yes
compute         scandiummsd scandium msd com yes
compute         chloridemsd chloride msd com yes
fix             lithiummsdt lithium ave/time 1 1 1000 c_lithiummsd[4] file triclinic_8x8x8_600_li.txt
fix             scandiummymsdt scandium ave/time 1 1 1000 c_scandiummsd[4] file triclinic_8x8x8_600_sc.txt
fix             chloridemymsdt chloride ave/time 1 1 1000 c_chloridemsd[4] file triclinic_8x8x8_600_cl.txt
dump            atom_info all custom 1000 triclinic_8x8x8_600.lammpstrj element x y z q id type vx vy vz
dump_modify     atom_info append yes
dump_modify     atom_info sort id
dump_modify     atom_info element Li Sc Cl
restart         0
fix             int all nvt temp ${T1} ${T1} $(100*dt)
fix             int all nvt temp 600 ${T1} $(100*dt)
fix             int all nvt temp 600 600 $(100*dt)
fix             int all nvt temp 600 600 0.10000000000000000555
run             16000000
PPPM initialization ...
  using 12-bit tables for long-range coulomb (../kspace.cpp:323)
  G vector (1/distance) = 0.263874
  grid = 75 75 75
  stencil order = 5
  estimated absolute RMS force accuracy = 0.000181796
  estimated relative force accuracy = 1.2625e-05
  using double precision MKL FFT
  3d grid and FFT values/proc = 9152 3000
Per MPI rank memory allocation (min/avg/max) = 6.407 | 6.599 | 6.868 Mbytes
Step Temp E_pair E_mol TotEng Press Lx Ly Lz Fmax CPU CPULeft 
  100000    602.68435   -192306.78            0      -190153   -303.89956    87.770595    87.888674    88.284775    4.1178922            0            0 
  101000    600.54552   -192325.66            0   -190179.52   -77.686799    87.770595    87.888674    88.284775    4.3120107    4.4842551    71743.597 
  102000    599.62818   -192338.72            0   -190195.85   -681.85238    87.770595    87.888674    88.284775    4.6480859    8.9373379    71489.766 
  103000    598.62142    -192307.7            0   -190168.44    -362.8061    87.770595    87.888674    88.284775     4.073324     13.33029    71081.555 
  104000    592.17901   -192342.47            0   -190226.23   -345.10863    87.770595    87.888674    88.284775    4.4378086     17.80897    71218.075 
  105000    602.77145   -192324.56            0   -190170.47   -181.52638    87.770595    87.888674    88.284775    5.2028075    22.434482    71767.911 
  106000    600.16395   -192334.96            0   -190190.18   -135.49784    87.770595    87.888674    88.284775    4.2672384    27.322983    72833.968 
  107000    604.48288   -192337.19            0   -190176.98   -63.954808    87.770595    87.888674    88.284775    4.4322615    32.417755     74065.31 
  108000    595.58278   -192337.82            0   -190209.41   -278.71169    87.770595    87.888674    88.284775    4.9235363    37.323714    74610.104 
  109000    600.32878    -192356.6            0   -190211.23   -561.70662    87.770595    87.888674    88.284775    5.3156581    41.708014    74105.874 
  110000    601.51263   -192316.74            0   -190167.14   -82.004432    87.770595    87.888674    88.284775    5.0331417    46.125242    73754.263 
  111000     603.2154    -192342.3            0   -190186.61   -380.44901    87.770595    87.888674    88.284775    4.7766294    50.552017    73479.656 
  112000    594.93899   -192330.15            0   -190204.05   -210.57612    87.770595    87.888674    88.284775    4.2100764    54.907906    73155.634 
  113000    603.63621   -192346.93            0   -190189.74   -62.643843    87.770595    87.888674    88.284775    4.2301784    59.376063    73018.857 
  114000    598.81847   -192343.77            0    -190203.8   -163.13354    87.770595    87.888674    88.284775    3.9864089    64.088263    73179.642 
  115000    601.10627   -192342.69            0   -190194.54   -83.319994    87.770595    87.888674    88.284775    4.3686863    69.078453    73614.606 
  116000     601.2046    -192318.3            0    -190169.8   -73.823124    87.770595    87.888674    88.284775    4.4433044    73.990695    73916.705 
  117000    601.80757   -192343.16            0   -190192.51   -235.64228    87.770595    87.888674    88.284775     4.227729    78.605455        73903 
  118000    601.31657   -192341.77            0   -190192.87   -211.48506    87.770595    87.888674    88.284775    4.8652669    83.029281    73720.777 
  119000    599.99235   -192331.92            0   -190187.75   -77.836287    87.770595    87.888674    88.284775    4.3263243    87.419993    73529.417 
  120000    595.50954   -192352.57            0   -190224.42   -422.97852    87.770595    87.888674    88.284775    5.8613597    91.859268    73395.556 
  121000    597.03634   -192340.82            0   -190207.21   -470.93845    87.770595    87.888674    88.284775    4.5830343    96.242622     73231.47 
  122000    602.07072   -192363.35            0   -190211.76   -52.111098    87.770595    87.888674    88.284775    4.2897475     100.7466     73169.51 
  123000    600.12868   -192353.22            0   -190208.57   -172.17252    87.770595    87.888674    88.284775    4.2987462    105.45835    73256.871 
  124000    596.18278   -192351.69            0   -190221.14    -413.6302    87.770595    87.888674    88.284775    5.3608286    110.68996    73682.616 
  125000    599.00355   -192358.32            0   -190217.69    11.822914    87.770595    87.888674    88.284775    4.1562993    115.51847    73816.304 
  126000    603.73289   -192362.91            0   -190205.38   -53.240644    87.770595    87.888674    88.284775     4.243689    119.98188    73715.025 
  127000    599.77009   -192345.68            0    -190202.3   -75.184652    87.770595    87.888674    88.284775    3.9794043    124.42266    73607.523 
  128000    603.42318   -192349.07            0   -190192.64    -298.6749    87.770595    87.888674    88.284775    4.2238769    128.88404     73519.14 
  129000    598.43678   -192326.79            0   -190188.18    -35.60906    87.770595    87.888674    88.284775    3.8936952    133.31699    73420.885 
  130000    596.11615   -192344.61            0   -190214.29   -554.23818    87.770595    87.888674    88.284775    4.0564879    137.73252    73319.609 
  131000    597.08262   -192343.96            0    -190210.2   -394.33543    87.770595    87.888674    88.284775    4.9042311    142.43076    73370.223 
  132000    601.76353   -192354.86            0   -190204.37    -464.7968    87.770595    87.888674    88.284775     4.933389    147.28713    73496.276 
  133000    599.86178   -192358.82            0   -190215.12   -251.63892    87.770595    87.888674    88.284775    3.9833197    152.38326    73730.411 
  134000    597.95074   -192350.89            0   -190214.02   -229.96771    87.770595    87.888674    88.284775    4.2581499    157.13237    73787.512 
  135000     602.1873   -192337.31            0    -190185.3    -585.3487    87.770595    87.888674    88.284775    4.3145283    161.51855    73675.534 
  136000    601.94878   -192371.57            0   -190220.41   -274.81776    87.770595    87.888674    88.284775    4.9992663     165.9228    73577.543 
  137000     601.5206   -192358.29            0   -190208.67   -292.07494    87.770595    87.888674    88.284775    4.6905625    170.36034    73498.976 
  138000    603.75757   -192354.03            0   -190196.41   -573.42632    87.770595    87.888674    88.284775    4.3627586    174.76393    73410.049 
  139000    599.96396   -192364.71            0   -190220.65   -447.36692    87.770595    87.888674    88.284775    4.0972077    179.22368    73348.442 
  140000    596.55237   -192334.05            0   -190202.18   -399.85478    87.770595    87.888674    88.284775    4.1902402    183.98584    73410.352 
  141000     597.1384   -192370.18            0   -190236.21   -20.595138    87.770595    87.888674    88.284775    4.6157312     189.0059    73569.395 
  142000    599.09842   -192347.63            0   -190206.66   -570.00029    87.770595    87.888674    88.284775    3.9705163     193.9028     73673.83 
  143000    599.73587   -192348.87            0   -190205.62   -433.35355    87.770595    87.888674    88.284775    4.7322761    198.55302    73681.642 
  144000    595.66358   -192355.79            0   -190227.09   -27.352796    87.770595    87.888674    88.284775    4.2218827    203.00172    73615.808 
  145000     603.0683   -192349.79            0   -190194.64   -179.46518    87.770595    87.888674    88.284775    4.1541994    207.51079    73574.103 
  146000    600.08313   -192353.91            0   -190209.42   -266.83638    87.770595    87.888674    88.284775    4.3685271    212.01929     73533.82 
  147000    603.31644   -192346.06            0   -190190.01    -304.5609    87.770595    87.888674    88.284775    4.1536332    216.39502    73449.996 
  148000    595.98064   -192329.14            0   -190199.31   -598.11254    87.770595    87.888674    88.284775    4.2448455    220.90445    73413.913 
  149000    599.62463    -192353.9            0   -190211.05   -298.13722    87.770595    87.888674    88.284775    5.1054884    225.58271    73434.079 
  150000    601.40014   -192363.46            0   -190214.27   -478.39782    87.770595    87.888674    88.284775    3.8208817    230.85889    73643.987 
  151000    599.74348   -192332.46            0   -190189.18   -420.90626    87.770595    87.888674    88.284775    4.8901594    235.80102     73740.99 
  152000    596.26184   -192345.94            0    -190215.1   -261.85031    87.770595    87.888674    88.284775    5.3415891     240.2381    73679.178 
  153000    602.23467   -192342.32            0   -190190.15   -277.02675    87.770595    87.888674    88.284775     4.137736     244.6416    73609.425 
  154000    602.05695   -192366.64            0   -190215.09   -274.12426    87.770595    87.888674    88.284775     3.948696    249.32852     73625.79 
  155000    596.74259   -192354.33            0   -190221.78   -245.79798    87.770595    87.888674    88.284775    4.0430403     253.7568    73566.405 
  156000    593.24621   -192344.11            0   -190224.05    -160.1093    87.770595    87.888674    88.284775    4.2145413    258.15528    73500.497 
  157000    605.75936   -192347.04            0   -190182.27   -397.62145    87.770595    87.888674    88.284775    4.1635095    262.78734    73502.081 
  158000    596.29168   -192338.39            0   -190207.45   -381.50949    87.770595    87.888674    88.284775     4.722906    267.85199    73622.353 
  159000    597.65458   -192356.28            0   -190220.47   -235.51782    87.770595    87.888674    88.284775    4.5345752    272.87178    73726.255 
  160000    596.09504   -192363.85            0   -190233.61   -205.94094    87.770595    87.888674    88.284775    4.3633503    277.59205    73746.953 
  161000    598.22362    -192355.9            0   -190218.05   -444.26858    87.770595    87.888674    88.284775    5.6089431    282.07548    73704.937 
  162000    600.15326   -192373.25            0    -190228.5   -416.19315    87.770595    87.888674    88.284775    4.1239759    286.55189    73662.323 
  163000    601.91107    -192348.3            0   -190197.27   -559.72887    87.770595    87.888674    88.284775    4.7722198    290.91636    73592.603 
  164000    605.38354   -192332.04            0   -190168.61   -313.56512    87.770595    87.888674    88.284775    4.0786441     295.3274    73536.522 
  165000    598.71885   -192335.73            0   -190196.12   -792.14889    87.770595    87.888674    88.284775    4.5613576    299.73077    73480.151 
  166000    595.71145   -192332.02            0   -190203.15   -194.25633    87.770595    87.888674    88.284775    3.9226702    304.39568    73488.496 
  167000    591.21041   -192356.93            0   -190244.15   -692.19216    87.770595    87.888674    88.284775    5.2071108    309.73895    73657.772 
  168000    599.60945   -192343.31            0   -190200.51   -643.32044    87.770595    87.888674    88.284775    4.0583681    314.65458    73721.719 
  169000    601.67133   -192359.22            0   -190209.05   -443.24397    87.770595    87.888674    88.284775    4.7502151    319.14617    73685.762 
  170000    599.74916   -192384.53            0   -190241.23    -453.9011    87.770595    87.888674    88.284775    4.2581175    323.52586    73625.242 
  171000    602.73632   -192359.94            0   -190205.96   -795.77785    87.770595    87.888674    88.284775    4.9837213    327.93114    73572.045 
  172000    603.49051   -192344.04            0   -190187.37   -582.91796    87.770595    87.888674    88.284775    4.0472208    332.33185    73519.191 
  173000    592.36797   -192354.73            0   -190237.82   -8.3017775    87.770595    87.888674    88.284775    4.1953651    336.69851    73460.236 
  174000    600.62104   -192357.59            0   -190211.18   -663.69527    87.770595    87.888674    88.284775    4.4065642     341.2046    73432.763 
  175000    602.86585   -192356.62            0   -190202.19   -193.47146    87.770595    87.888674    88.284775    4.8581626    345.99864    73467.044 
  176000    597.57315   -192358.85            0   -190223.33   -726.21162    87.770595    87.888674    88.284775    5.0109522    351.15409    73576.022 
  177000    602.50107   -192350.79            0   -190197.66     114.0237    87.770595    87.888674    88.284775     4.410954    356.06261    73630.974 
  178000    607.00596   -192375.76            0   -190206.53   -285.64114    87.770595    87.888674    88.284775    4.1339061    360.53327     73595.01 
  179000    596.51277   -192366.83            0    -190235.1   -429.77938    87.770595    87.888674    88.284775    4.4398645     364.9529    73549.559 
  180000    603.70056   -192339.71            0   -190182.29   -640.59331    87.770595    87.888674    88.284775    4.0358906    369.41307    73513.202 
  181000    601.45849   -192364.75            0   -190215.35   -441.56536    87.770595    87.888674    88.284775    4.6912472    373.89987    73482.865 
  182000    600.38924   -192325.53            0   -190179.95   -586.57112    87.770595    87.888674    88.284775    4.5578067    378.32742    73441.657 
  183000    597.73218   -192350.24            0   -190214.15   -163.87584    87.770595    87.888674    88.284775    4.5147703    382.89917    73428.989 
  184000    599.42801   -192373.19            0   -190231.04   -438.29696    87.770595    87.888674    88.284775    4.4824662    387.99287    73515.411 
  185000      601.295   -192344.35            0   -190195.53   -629.09602    87.770595    87.888674    88.284775    4.5339612    393.08244    73598.906 
  186000    599.87416   -192352.84            0   -190209.09   -276.25045    87.770595    87.888674    88.284775    4.7230137    397.83222    73617.465 
  187000    598.42803   -192339.72            0   -190201.15   -246.69251    87.770595    87.888674    88.284775     3.944365    402.27278    73578.928 
  188000    601.26673   -192366.06            0   -190217.34   -357.71053    87.770595    87.888674    88.284775    4.1897005    406.61985    73524.262 
  189000    602.32083   -192358.89            0    -190206.4   -260.81432    87.770595    87.888674    88.284775     4.368525    411.04109    73483.987 
  190000    595.11276   -192350.38            0   -190223.66   -42.846799    87.770595    87.888674    88.284775    4.3194699    415.46678    73445.294 
  191000    605.51436   -192356.62            0   -190192.72   -241.40459    87.770595    87.888674    88.284775    4.2468709     419.9504    73417.483 
  192000    596.31854   -192360.99            0   -190229.95   -350.76091    87.770595    87.888674    88.284775    4.1713636    424.65822    73428.945 
  193000    601.92746   -192361.28            0    -190210.2   -736.64843    87.770595    87.888674    88.284775    4.1762855    429.82148    73517.961 
  194000    601.64676   -192341.15            0   -190191.07   -218.01795    87.770595    87.888674    88.284775    4.1582896    434.66358    73550.627 
  195000    598.45697   -192361.49            0   -190222.81   -618.76892    87.770595    87.888674    88.284775    4.4684362    439.26412    73542.062 
  196000    599.25462   -192348.53            0      -190207   -467.13587    87.770595    87.888674    88.284775     5.002969    443.65358     73498.61 
  197000      597.966   -192363.25            0   -190226.32   -109.22923    87.770595    87.888674    88.284775    4.4350941    448.02632    73453.223 
  198000    599.20183   -192330.63            0   -190189.29   -29.376243    87.770595    87.888674    88.284775    4.4492388    452.39536    73408.072 
  199000    601.43384   -192367.33            0   -190218.01   -225.07352    87.770595    87.888674    88.284775    4.0143612    456.83252    73374.686 
  200000    598.86645   -192348.15            0   -190208.01   -394.88521    87.770595    87.888674    88.284775    3.9644521    461.28012     73343.54 
  201000    604.27362   -192361.08            0   -190201.61    92.140752    87.770595    87.888674    88.284775    3.9988859    466.09379    73370.547 
  202000    600.53984   -192350.63            0   -190204.51   -123.21797    87.770595    87.888674    88.284775    4.0649438    471.14621    73434.141 
  203000    596.30201   -192365.57            0   -190234.59   -192.02209    87.770595    87.888674    88.284775    4.2276498    476.05181    73473.744 
  204000    598.89108   -192360.68            0   -190220.45   -187.41256    87.770595    87.888674    88.284775    4.4649271    480.55607    73451.146 
  205000    602.04088   -192362.49            0      -190211   -153.55396    87.770595    87.888674    88.284775    4.8673854    485.03422    73424.943 
  206000    600.60233   -192356.29            0   -190209.95    96.774172    87.770595    87.888674    88.284775    4.4345269    489.48413    73394.913 
  207000     599.3714   -192375.19            0   -190233.24    -462.0568    87.770595    87.888674    88.284775    3.9985073    493.87374    73356.406 
  208000    599.57223   -192355.52            0   -190212.85   -188.50749    87.770595    87.888674    88.284775     5.181716    498.23599    73314.503 
  209000    595.06267   -192363.18            0   -190236.63     65.17399    87.770595    87.888674    88.284775    5.1554282    502.88902    73315.684 
  210000    599.16891   -192339.37            0   -190198.14   -208.56377    87.770595    87.888674    88.284775    5.0514612    507.92536    73372.127 
  211000    599.09644   -192364.43            0   -190223.47   -327.97911    87.770595    87.888674    88.284775    4.2698928    512.93297    73423.351 
  212000    598.01938   -192357.53            0   -190220.42   -108.25494    87.770595    87.888674    88.284775    4.2586089    517.79431    73452.822 
  213000    596.64005   -192354.23            0   -190222.05   -215.36391    87.770595    87.888674    88.284775    4.2182787     522.2012    73417.791 
  214000    602.15076   -192370.79            0   -190218.91   -116.87476    87.770595    87.888674    88.284775    4.9006618    526.57167    73378.224 
  215000    604.47037   -192371.96            0   -190211.79   -456.62081    87.770595    87.888674    88.284775    4.5474852    531.01967    73349.977 
  216000    600.05607   -192378.46            0   -190234.06   -536.96344    87.770595    87.888674    88.284775    4.4090985    535.43504    73317.674 
  217000    600.69408   -192358.74            0   -190212.07   -65.233161    87.770595    87.888674    88.284775    3.8596185     539.9372    73297.629 
  218000    595.91395   -192368.73            0   -190239.14    32.804989    87.770595    87.888674    88.284775    3.9379314    544.66382    73308.057 
  219000    599.76212   -192356.47            0   -190213.12   -521.89311    87.770595    87.888674    88.284775    4.6507919    549.82124    73375.723 
  220000    598.68046   -192366.65            0   -190227.17   -260.77032    87.770595    87.888674    88.284775    4.0355042    554.72044    73408.005 
  221000    600.73085    -192370.2            0    -190223.4    -349.2598    87.770595    87.888674    88.284775    4.8648381    559.40413     73411.39 
  222000    594.56538   -192369.68            0    -190244.9   -547.37424    87.770595    87.888674    88.284775    4.0583514    563.84356    73382.853 
  223000    600.20483   -192354.13            0    -190209.2    -343.1393    87.770595    87.888674    88.284775    4.6737602    568.16296    73339.213 
  224000    600.57027   -192375.83            0    -190229.6   -94.641643    87.770595    87.888674    88.284775    4.3132168    572.60456    73311.855 
  225000    601.26651   -192356.41            0   -190207.69   -260.43788    87.770595    87.888674    88.284775    4.9440323    577.01505    73280.911 
  226000    595.72666    -192362.2            0   -190233.28   -44.850397    87.770595    87.888674    88.284775     4.528273    581.47632    73256.787 
  227000    599.69816   -192357.49            0   -190214.38   -348.47737    87.770595    87.888674    88.284775    3.8854457     586.3337    73282.479 
  228000     596.3872   -192380.46            0   -190249.18   -655.68796    87.770595    87.888674    88.284775    3.7711774    591.44298     73338.93 
  229000    601.28422   -192367.32            0   -190218.54    -54.95232    87.770595    87.888674    88.284775    4.1690971    596.35118    73369.687 
  230000    599.96503   -192333.95            0   -190189.88   -42.567571    87.770595    87.888674    88.284775    4.4025555    600.82185    73346.483 
  231000    602.41444   -192376.74            0   -190223.92   -231.34461    87.770595    87.888674    88.284775    4.1969809    605.27857    73321.875 
  232000    602.39539   -192358.59            0   -190205.84   -305.00709    87.770595    87.888674    88.284775    4.4399629     609.8014    73305.521 
  233000    603.40307    -192367.5            0   -190211.14   -213.94323    87.770595    87.888674    88.284775    4.9135998     614.2927    73285.581 
  234000    595.24341   -192380.19            0      -190253   -594.98848    87.770595    87.888674    88.284775     3.780568    618.75194    73262.077 
  235000     599.4244   -192355.19            0   -190213.05   -183.10858    87.770595    87.888674    88.284775    4.5061251     623.4437     73266.18 
  236000    601.88767   -192368.73            0   -190217.79   -121.44898    87.770595    87.888674    88.284775    4.3163684    628.45638    73307.589 
  237000    601.38363   -192360.32            0   -190211.18   -129.84721    87.770595    87.888674    88.284775    4.2518805    633.43608      73344.5 
  238000    598.25488   -192353.64            0   -190215.68   -441.52435    87.770595    87.888674    88.284775    4.7558583     638.1072    73345.336 
  239000    597.69011   -192336.86            0   -190200.92   -289.36467    87.770595    87.888674    88.284775    4.0070579     642.5728    73322.642 
  240000    600.60198   -192354.19            0   -190207.84   -390.65506    87.770595    87.888674    88.284775    4.0652122    647.05642    73302.248 
  241000    595.71197   -192350.31            0   -190221.44    -112.5129    87.770595    87.888674    88.284775     4.108532     651.5698    73285.429 
  242000    600.13017   -192359.82            0   -190215.16   -247.49151    87.770595    87.888674    88.284775    4.1258378    655.98538     73257.86 
  243000    601.46754    -192346.6            0   -190197.17   -134.84957    87.770595    87.888674    88.284775    4.3307621    660.44625    73235.638 
  244000    600.03871   -192353.79            0   -190209.46   -85.463637    87.770595    87.888674    88.284775    4.1711056    665.13987    73239.291 
  245000    598.71432   -192360.51            0   -190220.91   -255.63436    87.770595    87.888674    88.284775    4.1699089    670.39631    73304.369 
  246000     603.0959   -192369.75            0   -190214.49   -148.99983    87.770595    87.888674    88.284775    4.7129086    675.26906     73326.82 
  247000     600.0285   -192342.75            0   -190198.45   -127.04346    87.770595    87.888674    88.284775    4.6932993    679.77699    73309.555 
  248000    604.78236   -192370.87            0   -190209.59   -82.802698    87.770595    87.888674    88.284775     4.468314    684.22342    73285.876 
  249000    604.86362   -192354.65            0   -190193.08    96.831498    87.770595    87.888674    88.284775    4.4068394    688.59172    73254.143 
  250000    601.24796   -192347.28            0   -190198.62    -125.8093    87.770595    87.888674    88.284775    4.7555564    692.98176    73225.072 
  251000    598.14793   -192369.77            0   -190232.19   -111.14572    87.770595    87.888674    88.284775    4.0716242    697.43052    73202.492 
  252000    603.66865   -192357.78            0   -190200.47   -330.65506    87.770595    87.888674    88.284775    4.5620958    701.96176     73188.75 
  253000    600.59638   -192361.41            0   -190215.09    204.16374    87.770595    87.888674    88.284775    4.1173189    706.76157    73202.945 
  254000    596.67696   -192351.77            0   -190219.45   -182.73303    87.770595    87.888674    88.284775    4.2887856     711.8818    73249.864 
  255000    606.07921   -192348.85            0   -190182.93   -20.772648    87.770595    87.888674    88.284775    4.6637519    716.75816    73271.182 
  256000     599.1564   -192368.65            0   -190227.47    226.09001    87.770595    87.888674    88.284775    4.4766516    721.19291     73247.31 
  257000    602.65447   -192371.86            0   -190218.18   -542.93735    87.770595    87.888674    88.284775    4.4984531    725.68191    73229.162 
  258000    598.56473    -192371.9            0   -190232.84   -317.52177    87.770595    87.888674    88.284775    4.7786656    730.12824    73206.909 
  259000    594.96392   -192360.28            0   -190234.09   -608.45983    87.770595    87.888674    88.284775    4.9617719    734.56496    73183.922 
  260000     600.1549   -192354.03            0   -190209.29   -458.61843    87.770595    87.888674    88.284775    4.8952729    738.99124    73160.133 
  261000    599.11783    -192345.8            0   -190204.76   -289.38015    87.770595    87.888674    88.284775    4.3396893    743.63088    73157.575 
  262000    597.45872      -192356            0   -190220.89   -510.24756    87.770595    87.888674    88.284775    4.2714229    748.56961    73184.231 
  263000    599.73359   -192368.55            0   -190225.31   -291.69154    87.770595    87.888674    88.284775    4.3532847     753.6118    73220.552 
  264000    600.99137   -192353.37            0   -190205.63    -96.14441    87.770595    87.888674    88.284775    4.4562939    758.32198     73224.31 
  265000    601.78502   -192382.78            0    -190232.2   -493.74655    87.770595    87.888674    88.284775    4.3224005    762.76106    73201.948 
  266000    601.90014   -192364.75            0   -190213.76   -267.11635    87.770595    87.888674    88.284775    4.1674233    767.18833    73178.675 
  267000    603.46303   -192376.76            0   -190220.19    -481.3665    87.770595    87.888674    88.284775    4.6774894    771.62245    73156.277 
  268000    597.87386   -192388.05            0   -190251.46    -333.7534    87.770595    87.888674    88.284775    5.1080211     776.0514    73133.606 
  269000    598.17996   -192377.97            0   -190240.28   -284.34691    87.770595    87.888674    88.284775    4.4756339    780.52391    73115.231 
  270000    601.11253   -192390.04            0   -190241.87   -278.63754    87.770595    87.888674    88.284775    4.6880804    785.30414    73125.674 
  271000    602.74613   -192371.11            0    -190217.1    302.02342    87.770595    87.888674    88.284775    4.8554148    790.47708     73172.29 
  272000    599.85065   -192374.91            0   -190231.25    1.8437767    87.770595    87.888674    88.284775    4.9704632    795.34491    73190.228 
  273000    599.86839   -192372.76            0   -190229.04   -101.58155    87.770595    87.888674    88.284775    4.1480325    799.87807    73177.284 
  274000    601.75367   -192365.01            0   -190214.55   -43.391722    87.770595    87.888674    88.284775    4.4441563    804.21112    73146.237 
  275000      606.732   -192386.67            0   -190218.41   -129.11317    87.770595    87.888674    88.284775     4.393324     808.6121    73121.637 
  276000    601.37148   -192356.63            0   -190207.53   -304.80661    87.770595    87.888674    88.284775     4.239575    813.01149    73097.124 
  277000    603.10133   -192361.09            0   -190205.82   -264.49232    87.770595    87.888674    88.284775    4.1543724    817.44809    73076.164 
  278000    602.17545   -192386.86            0    -190234.9   -312.03648    87.770595    87.888674    88.284775    4.7105579    822.02069     73067.48 
  279000    600.59061    -192359.7            0    -190213.4   -134.48106    87.770595    87.888674    88.284775    4.0981044    826.96946    73092.088 
  280000    601.18489   -192386.78            0   -190238.35   -184.65276    87.770595    87.888674    88.284775    4.1240128    832.04653    73127.645 
  281000    604.12505   -192360.51            0   -190201.57   -318.40018    87.770595    87.888674    88.284775    4.2957214    836.92695    73145.566 
  282000    600.46537   -192375.93            0   -190230.07   -662.47787    87.770595    87.888674    88.284775      4.21884     841.3316    73121.886 
  283000     600.4349   -192365.33            0   -190219.58    -755.9462    87.770595    87.888674    88.284775     3.888675    845.98572    73119.979 
  284000    599.06245   -192364.54            0    -190223.7    123.57845    87.770595    87.888674    88.284775    5.4425638    850.42445    73099.528 
  285000     600.0205   -192370.53            0   -190226.27    -270.6231    87.770595    87.888674    88.284775    3.8181641    854.85957    73078.941 
  286000    603.52922   -192392.85            0   -190236.04   -183.45827    87.770595    87.888674    88.284775    4.1409823    859.34794    73063.056 
  287000    600.67042   -192349.67            0   -190203.08   -273.05651    87.770595    87.888674    88.284775    5.7084114     864.0153    73062.427 
  288000    599.66644    -192383.6            0    -190240.6   -69.075788    87.770595    87.888674    88.284775    5.2562405    869.11775    73098.351 
  289000    598.17448    -192346.1            0   -190208.43   -171.64886    87.770595    87.888674    88.284775    4.2755162    874.12657    73126.007 
  290000    598.01681   -192360.82            0   -190223.71   -348.36271    87.770595    87.888674    88.284775    4.4832573    878.79238    73124.776 
  291000    599.57104   -192365.36            0    -190222.7   -274.62244    87.770595    87.888674    88.284775    4.3699813    883.20869     73102.86 
  292000     600.2469    -192379.1            0   -190234.03   -316.78568    87.770595    87.888674    88.284775    4.3695453    887.58715    73078.009 
  293000    604.92312   -192342.51            0   -190180.73    -253.9084    87.770595    87.888674    88.284775    4.4964423    891.99489    73055.768 
  294000     600.8806   -192375.47            0   -190228.13   -363.47425    87.770595    87.888674    88.284775     4.343936    896.42139     73035.24 
  295000    602.57485   -192367.06            0   -190213.66   -248.75064    87.770595    87.888674    88.284775    5.6318081    900.98655    73026.115 
  296000    606.19866   -192388.61            0   -190222.26   -268.11065    87.770595    87.888674    88.284775     4.556759    905.77398    73034.959 
  297000    597.27852   -192361.47            0   -190227.01    155.37687    87.770595    87.888674    88.284775    4.2872878     910.9797    73077.219 
  298000     598.7358   -192357.38            0    -190217.7   -322.50794    87.770595    87.888674    88.284775    4.8426446    915.85248    73092.429 
  299000     599.7429   -192384.58            0   -190241.31   -369.33814    87.770595    87.888674    88.284775    4.5157265    920.32134    73075.364 
  300000    599.41193   -192390.74            0   -190248.65   -353.28899    87.770595    87.888674    88.284775    4.3858417    924.68354        73050 
  301000     602.3059   -192374.91            0   -190222.48   -122.12263    87.770595    87.888674    88.284775    4.5785788    929.16698    73034.374 
  302000    599.25038   -192381.65            0   -190240.14   -309.32895    87.770595    87.888674    88.284775    4.1455457    933.54069    73010.277 
  303000    595.16739   -192345.43            0    -190218.5    -274.7951    87.770595    87.888674    88.284775    4.7481669    937.97632    72991.192 
  304000    599.55445   -192364.87            0   -190222.26    -104.4655    87.770595    87.888674    88.284775    4.6960292    942.56136     72983.82 
  305000    598.26026   -192358.79            0   -190220.81   -474.47406    87.770595    87.888674    88.284775    4.2989942    947.51961    73005.231 
  306000     597.1228   -192371.16            0   -190237.25    -326.8472    87.770595    87.888674    88.284775    4.3835804    952.48289    73026.771 
  307000    597.03247   -192359.57            0   -190225.98   -148.58249    87.770595    87.888674    88.284775    4.3863317    957.32397    73038.732 
  308000    595.46475   -192391.63            0   -190263.65    -627.5496    87.770595    87.888674    88.284775    4.0470941    961.70261    73015.421 
  309000    601.57382   -192371.83            0   -190222.01   -10.803565    87.770595    87.888674    88.284775      4.46279    966.15526    72997.884 
  310000    605.71012   -192376.28            0   -190211.68   -130.57944    87.770595    87.888674    88.284775    4.6250827    970.57182    72977.757 
  311000    595.96589   -192383.46            0   -190253.69   -203.31752    87.770595    87.888674    88.284775    4.6179788    975.03097    72960.967 
  312000    599.61476   -192384.72            0    -190241.9   -292.40486    87.770595    87.888674    88.284775    4.1490598    979.46019    72942.064 
  313000    605.16485   -192376.61            0   -190213.96   -385.24532    87.770595    87.888674    88.284775    3.7639391    984.14464    72942.213 
  314000    604.89878   -192397.47            0   -190235.77   -86.300927    87.770595    87.888674    88.284775    5.7412037      989.189    72968.867 
  315000    596.39825   -192406.83            0   -190275.51   -233.31718    87.770595    87.888674    88.284775    4.1102768    994.11602    72986.611 
  316000    599.05203   -192381.05            0   -190240.24   -205.66246    87.770595    87.888674    88.284775    4.1820065    998.80107    72986.463 
  317000    603.51435   -192405.03            0   -190248.27   -377.72278    87.770595    87.888674    88.284775    3.8777897    1003.2264    72967.386 
  318000    601.92064   -192380.25            0   -190229.19   -315.15073    87.770595    87.888674    88.284775    4.1268938    1007.6018    72944.821 
  319000    597.22861   -192388.91            0   -190254.62   -252.01462    87.770595    87.888674    88.284775    4.9458475     1012.019    72925.439 
  320000    597.97934   -192360.97            0      -190224   -126.24062    87.770595    87.888674    88.284775     5.216796    1016.4205    72905.069 
  321000    601.44761   -192350.49            0   -190201.13   -474.53514    87.770595    87.888674    88.284775    4.7070527    1020.8623     72887.72 
  322000    601.26915   -192383.79            0   -190235.06    -264.4019    87.770595    87.888674    88.284775    4.6284549    1025.5669    72889.167 
  323000    602.58723   -192372.59            0   -190219.15   -380.72201    87.770595    87.888674    88.284775    4.4491339    1030.8194    72929.315 
  324000    598.05492   -192359.02            0   -190221.78   -152.18025    87.770595    87.888674    88.284775    3.9700352    1035.6566    72939.817 
  325000    597.30569   -192372.63            0   -190238.07   -255.48042    87.770595    87.888674    88.284775    4.3045613    1040.2196    72930.949 
  326000    600.02303   -192382.34            0   -190238.06   -338.81293    87.770595    87.888674    88.284775    4.3556019    1044.6931    72915.883 
  327000     599.8252   -192370.36            0   -190226.79   -366.78841    87.770595    87.888674    88.284775    4.7623184    1049.0934    72895.819 
  328000    594.94061   -192372.17            0   -190246.06    -90.10826    87.770595    87.888674    88.284775    4.1271927     1053.603    72883.447 
  329000    597.43705   -192373.32            0   -190238.29   -575.80615    87.770595    87.888674    88.284775    4.8855315    1058.0123    72864.247 
  330000    603.71774   -192349.63            0   -190192.16   -344.60092    87.770595    87.888674    88.284775    5.4273847    1062.5629    72854.857 
  331000    601.06429    -192370.3            0    -190222.3   -340.20566    87.770595    87.888674    88.284775    3.8616541    1067.5252    72873.612 
  332000    602.51602   -192377.68            0    -190224.5   -369.06986    87.770595    87.888674    88.284775    4.7810791    1072.5078     72893.55 
  333000    605.01469   -192393.79            0   -190231.68   -251.21802    87.770595    87.888674    88.284775    4.9637468    1077.3039    72900.645 
  334000    600.43371   -192363.36            0   -190217.62   -1.0539847    87.770595    87.888674    88.284775    4.2237358    1081.7784    72885.977 
  335000    597.66254   -192368.12            0   -190232.28   -307.22627    87.770595    87.888674    88.284775    5.2341977    1086.1894    72867.131 
  336000    605.85921   -192380.84            0   -190215.71   -508.97858    87.770595    87.888674    88.284775    4.3659478    1090.6003    72848.403 
  337000    602.28625   -192389.76            0   -190237.39   -606.98334    87.770595    87.888674    88.284775    4.4961428    1094.9614    72826.482 
  338000    609.25471   -192378.47            0    -190201.2    -17.97195    87.770595    87.888674    88.284775    4.4316542    1099.3903    72809.203 
  339000    600.04126   -192363.86            0   -190219.52   -293.14959    87.770595    87.888674    88.284775    4.4456283    1104.0814    72809.316 
  340000     601.9964   -192356.57            0   -190205.24   -48.781966    87.770595    87.888674    88.284775    3.8501574    1109.1276    72832.713 
  341000    600.39157   -192392.46            0   -190246.87   -546.52047    87.770595    87.888674    88.284775    3.9819632    1114.0911    72850.466 
  342000    600.26803   -192378.36            0    -190233.2   -71.234024    87.770595    87.888674    88.284775    4.6705606    1118.7829    72850.334 
  343000    596.59129   -192382.78            0   -190250.77   -147.37581    87.770595    87.888674    88.284775    5.0501578     1123.188    72831.579 
  344000    599.16723   -192382.51            0    -190241.3   -135.42879    87.770595    87.888674    88.284775    4.0796658    1127.5167    72808.005 
  345000    605.62063   -192393.01            0   -190228.73   -141.38731    87.770595    87.888674    88.284775    4.2260816     1131.929    72789.968 
  346000    599.91297   -192393.09            0   -190249.21   -308.12023    87.770595    87.888674    88.284775    3.7654776    1136.2682    72767.351 
  347000    603.21847   -192366.52            0   -190210.83   -42.307144    87.770595    87.888674    88.284775    4.1284485    1140.7427    72753.524 
  348000    600.02524    -192379.4            0   -190235.12   -451.22293    87.770595    87.888674    88.284775    4.7640286    1145.4431     72754.11 
  349000    598.55285   -192375.63            0    -190236.6   -384.85131    87.770595    87.888674    88.284775     4.364012    1150.6121    72784.302 
  350000    606.40835   -192397.21            0   -190230.12    -61.79446    87.770595    87.888674    88.284775    4.1613653    1155.4561    72793.734 
  351000    601.68741   -192354.44            0   -190204.22    139.44091    87.770595    87.888674    88.284775    4.3565672    1159.9692    72782.292 
  352000    601.80407   -192351.75            0   -190201.11   -207.18834    87.770595    87.888674    88.284775    4.6581433    1164.3601    72763.265 
  353000    598.83182   -192353.67            0   -190213.65   -185.05792    87.770595    87.888674    88.284775    4.7523219    1168.7189     72742.36 
  354000    597.99734   -192377.28            0   -190240.24    -227.4076    87.770595    87.888674    88.284775    4.9088999    1173.1904    72728.566 
  355000    603.95826   -192365.83            0   -190207.49   -179.05814    87.770595    87.888674    88.284775    3.6450499    1177.6092    72711.596 
  356000    601.61393   -192347.81            0   -190197.85     -106.071    87.770595    87.888674    88.284775     4.624683    1182.1485    72702.135 
  357000    601.33309   -192372.99            0   -190224.04   -556.82115    87.770595    87.888674    88.284775    4.1282979    1187.0352    72713.991 
  358000    603.34537   -192369.15            0   -190213.01   -165.42753    87.770595    87.888674    88.284775    3.9783802    1192.1061    72736.954 
  359000    599.82161   -192381.96            0    -190238.4   -304.53962    87.770595    87.888674    88.284775    4.3788773     1196.901    72742.931 
  360000    602.81086   -192391.59            0   -190237.36   -234.87965    87.770595    87.888674    88.284775    5.0580233    1201.3388    72727.206 
  361000    596.60219   -192371.89            0   -190239.84   -483.24692    87.770595    87.888674    88.284775     4.541742    1205.7722    72711.297 
  362000    605.02716   -192388.98            0   -190226.82   -285.27908    87.770595    87.888674    88.284775    4.3450745    1210.2269    72696.757 
  363000    599.00797   -192379.05            0   -190238.41   -436.30229    87.770595    87.888674    88.284775    4.0229235    1214.5773     72676.06 
  364000    602.21834   -192378.97            0   -190226.85   -276.78411    87.770595    87.888674    88.284775    4.6371102    1218.9838     72658.82 
  365000    599.82382   -192353.34            0   -190209.77    -8.916607    87.770595    87.888674    88.284775    4.4724462    1223.6151    72655.034 
  366000    598.63235   -192357.98            0   -190218.68   -503.97107    87.770595    87.888674    88.284775    4.4249858    1228.5804    72670.991 
  367000     603.6988   -192378.95            0   -190221.54   -662.01357    87.770595    87.888674    88.284775    4.2658597    1233.5607     72687.68 
  368000    595.00494   -192356.47            0   -190230.12   -189.38432    87.770595    87.888674    88.284775    4.2120495    1238.1834    72683.213 
  369000     591.7206   -192383.51            0   -190268.91   -756.68487    87.770595    87.888674    88.284775    5.3231472    1242.5893     72666.07 
  370000     598.8517   -192365.01            0   -190224.92   -652.62848    87.770595    87.888674    88.284775    4.5574047    1246.9832    72648.319 
  371000    599.85312   -192388.37            0    -190244.7   -188.84053    87.770595    87.888674    88.284775    4.6592798    1251.3815    72630.921 
  372000    602.42462    -192395.2            0   -190242.34   -356.32498    87.770595    87.888674    88.284775    4.2247514     1255.772    72613.168 
  373000    599.31038    -192357.1            0   -190215.37   -326.15557    87.770595    87.888674    88.284775    4.2067275    1260.2773     72602.13 
  374000    601.97885    -192364.2            0   -190212.93   -289.12536    87.770595    87.888674    88.284775    5.2165326    1265.0747    72607.903 
  375000    595.32633   -192377.56            0   -190250.06   -566.31198    87.770595    87.888674    88.284775    4.3071315      1270.26    72635.777 
  376000    602.66273   -192384.49            0   -190230.78   -134.43901    87.770595    87.888674    88.284775    4.0361974    1275.1713    72647.804 
  377000    602.54573   -192363.82            0   -190210.53   -307.91667    87.770595    87.888674    88.284775    5.0617939    1279.8001    72643.673 
  378000    604.32256    -192382.5            0   -190222.86   -261.82972    87.770595    87.888674    88.284775    4.5024663    1284.1479    72623.644 
  379000    598.21195   -192386.65            0   -190248.85   -597.76572    87.770595    87.888674    88.284775    4.2623904    1288.5962    72609.394 
  380000    598.95323   -192369.42            0   -190228.96    81.202526    87.770595    87.888674    88.284775    4.5657065    1293.0163    72593.628 
  381000     594.2631   -192384.56            0   -190260.86   -385.25415    87.770595    87.888674    88.284775    4.5264925    1297.4208    72577.075 
  382000    598.19989   -192360.17            0   -190222.41   -168.63389    87.770595    87.888674    88.284775    4.7624071    1302.0054    72570.639 
  383000    597.66603   -192371.52            0   -190235.66   -305.70192    87.770595    87.888674    88.284775    4.7851991    1306.8226    72577.139 
  384000    603.95055   -192376.25            0   -190217.94   -235.72626    87.770595    87.888674    88.284775    4.2318553    1311.9908    72602.987 
  385000    607.25211   -192388.85            0   -190218.74   -192.20109    87.770595    87.888674    88.284775    4.5422818    1316.7996    72608.792 
  386000    594.85783   -192359.28            0   -190233.46   -401.50048    87.770595    87.888674    88.284775     4.242984    1321.2151    72592.916 
  387000    599.61626   -192389.75            0   -190246.93   -408.28291    87.770595    87.888674    88.284775      4.40726    1325.6546    72578.434 
  388000    599.88119   -192374.87            0    -190231.1   -222.48892    87.770595    87.888674    88.284775    5.2391832    1330.1092    72564.849 
  389000    597.34515   -192383.46            0   -190248.76   -80.801983    87.770595    87.888674    88.284775    4.6087569    1334.5023    72547.977 
  390000    603.90284   -192377.55            0   -190219.41   -180.16766    87.770595    87.888674    88.284775    4.5828196    1338.8795    72530.337 
  391000    603.34871   -192361.59            0   -190205.43    127.88149    87.770595    87.888674    88.284775    4.6088607    1343.4867    72525.198 
  392000    603.06729   -192363.69            0   -190208.53   -18.799154    87.770595    87.888674    88.284775    4.3314971    1348.4872    72541.224 
  393000    600.60962   -192379.52            0   -190233.15   -226.61606    87.770595    87.888674    88.284775     4.143325    1353.4429    72554.701 
  394000     600.7206   -192380.97            0    -190234.2   -245.98642    87.770595    87.888674    88.284775    5.4353741    1358.1808    72556.419 
  395000     597.3751   -192375.12            0   -190240.31   -433.56549    87.770595    87.888674    88.284775    4.0275019    1362.6508    72543.833 
  396000      602.427   -192398.95            0   -190246.09   -691.75857    87.770595    87.888674    88.284775    4.3004258    1367.0291    72526.433 
  397000    600.54161   -192377.05            0   -190230.92   -574.46711    87.770595    87.888674    88.284775    4.7774969    1371.4615    72511.988 
  398000    601.23639   -192375.23            0   -190226.62   -397.87596    87.770595    87.888674    88.284775    4.4886109    1375.8127    72493.325 
  399000    597.79228   -192362.56            0   -190226.25   -449.00541    87.770595    87.888674    88.284775     4.496191    1380.2465    72479.101 
  400000    600.20214   -192377.27            0   -190232.36   -32.593225    87.770595    87.888674    88.284775     4.673195    1384.9628     72479.72 
  401000    605.32124   -192373.91            0    -190210.7   -359.48863    87.770595    87.888674    88.284775     4.183347    1390.1995    72507.451 
  402000    603.91722   -192388.28            0   -190230.09   -16.235632    87.770595    87.888674    88.284775    4.0934862    1395.0705    72515.949 
  403000    605.48231   -192393.05            0   -190229.27   -413.86163    87.770595    87.888674    88.284775     4.101762    1399.5685     72505.04 
  404000    594.15071   -192386.78            0   -190263.49    -219.0298    87.770595    87.888674    88.284775    4.3110895    1403.9897    72490.207 
  405000     602.4795   -192382.64            0   -190229.59   -142.88291    87.770595    87.888674    88.284775    4.4041607    1408.3808    72473.892 
  406000    600.84848   -192392.29            0   -190245.07   -480.60851    87.770595    87.888674    88.284775    3.9320423    1412.8265    72460.453 
  407000    595.09595   -192389.68            0   -190263.02   -510.20414    87.770595    87.888674    88.284775    4.1399434    1417.2548    72446.188 
  408000    597.72334    -192377.8            0   -190241.74    -445.8262    87.770595    87.888674    88.284775    4.8790155    1421.8417    72440.065 
  409000    600.49539   -192371.52            0   -190225.56   -195.12814    87.770595    87.888674    88.284775    4.5122742    1426.7554    72450.545 
  410000    599.32353   -192379.52            0   -190237.75   -400.21172    87.770595    87.888674    88.284775    3.6680786    1431.7711    72466.094 
  411000    603.84545   -192365.06            0   -190207.12   -181.62947    87.770595    87.888674    88.284775    4.3830609     1436.627    72473.445 
  412000    602.41566   -192375.18            0   -190222.36   -274.44093    87.770595    87.888674    88.284775    4.6807001    1440.9956    72456.216 
  413000    599.79061   -192377.35            0   -190233.91   -394.73952    87.770595    87.888674    88.284775    4.7602142    1445.5245    72447.101 
  414000    603.73508   -192361.13            0   -190203.59    -234.1308    87.770595    87.888674    88.284775    5.3497536    1450.1068    72440.688 
  415000    595.53604   -192369.08            0   -190240.84    -315.7085    87.770595    87.888674    88.284775    3.8351673    1454.5285    72426.284 
  416000    597.83707   -192357.27            0    -190220.8   -401.30059    87.770595    87.888674    88.284775    4.8706179    1458.8828    72408.603 
  417000    603.48407   -192357.85            0    -190201.2    -141.8048    87.770595    87.888674    88.284775    4.3702496    1463.5796    72407.946 
  418000    596.26156   -192376.22            0   -190245.38   -63.382488    87.770595    87.888674    88.284775    4.5974123    1468.6523    72425.804 
  419000    601.63458   -192365.29            0   -190215.26   -299.99067    87.770595    87.888674    88.284775    4.3976731    1473.5848    72436.627 
  420000    598.53925   -192379.65            0   -190240.68   -229.39575    87.770595    87.888674    88.284775    4.3847591    1478.3161    72437.488 
  421000    596.03667   -192388.54            0   -190258.51   -330.44948    87.770595    87.888674    88.284775    4.1676371    1482.8048    72426.469 
  422000    600.89738   -192391.83            0   -190244.43   -464.85757    87.770595    87.888674    88.284775    4.5125914     1487.327    72417.119 
  423000    600.76718   -192361.11            0   -190214.18   -178.03201    87.770595    87.888674    88.284775    4.9425076    1491.7194    72401.504 
  424000    598.90133   -192367.42            0   -190227.15   -591.83179    87.770595    87.888674    88.284775    4.2679869    1496.1068     72385.71 
  425000     601.8253   -192351.49            0   -190200.77   -133.67269    87.770595    87.888674    88.284775    4.4715688    1500.5611    72373.216 
  426000    598.47442   -192358.42            0   -190219.68   -10.226446    87.770595    87.888674    88.284775    4.4268451    1505.2417     72371.65 
  427000    599.38009   -192365.81            0   -190223.83   -400.29446    87.770595    87.888674    88.284775    4.5355297    1510.5351    72399.438 
  428000     598.4525   -192362.87            0    -190224.2   -435.09813    87.770595    87.888674    88.284775    4.6040986    1515.3983    72406.469 
  429000     600.3007   -192385.65            0   -190240.39   -244.29796    87.770595    87.888674    88.284775    5.0237629    1519.9715    72399.615 
  430000    603.16606   -192374.45            0   -190218.94   -268.85007    87.770595    87.888674    88.284775    3.6445127    1524.4271    72387.188 
  431000    599.61653   -192378.91            0   -190236.09     -252.012    87.770595    87.888674    88.284775    5.0040521    1528.8203    72371.859 
  432000    596.55073   -192374.94            0   -190243.07   -267.90463    87.770595    87.888674    88.284775    4.7297286    1533.2023    72356.067 
  433000    605.26717   -192357.57            0   -190194.55   -287.43402    87.770595    87.888674    88.284775    4.1509849    1537.5466    72338.565 
  434000    605.07132   -192393.53            0   -190231.22   -166.98055    87.770595    87.888674    88.284775    4.0938355    1542.1294    72332.335 
  435000    598.42754    -192371.3            0   -190232.73   -437.27137    87.770595    87.888674    88.284775    4.1033237      1547.04    72341.439 
  436000    598.42758   -192392.11            0   -190253.54   -241.72034    87.770595    87.888674    88.284775    4.2247537    1552.1116    72357.963 
  437000    595.98113   -192354.51            0   -190224.68   -327.08866    87.770595    87.888674    88.284775    4.4197953    1556.9642    72364.183 
  438000    603.24292   -192376.84            0   -190221.06   -511.56336    87.770595    87.888674    88.284775    4.4869475    1561.3301    72347.787 
  439000    600.58795   -192358.55            0   -190212.25   -554.83054    87.770595    87.888674    88.284775    4.0656449    1565.6834    72330.877 
  440000    602.87579   -192371.73            0   -190217.26   -259.43486    87.770595    87.888674    88.284775    4.5323801    1570.0901    72316.502 
  441000    602.74692    -192380.5            0   -190226.49   -437.33123    87.770595    87.888674    88.284775    4.4271802    1574.5425    72304.287 
  442000    607.88072   -192386.21            0   -190213.86    -525.8731    87.770595    87.888674    88.284775    4.1196182    1578.9879    72291.793 
  443000    600.14024   -192388.34            0   -190243.65   -322.95673    87.770595    87.888674    88.284775    4.5478696    1583.6379    72288.686 
  444000    601.08899   -192375.36            0   -190227.27   -296.26264    87.770595    87.888674    88.284775    4.4301757    1588.6843     72303.61 
  445000    601.34474   -192371.24            0   -190222.24   -369.91837    87.770595    87.888674    88.284775    3.8390722    1593.6259    72313.661 
  446000    601.85202   -192381.63            0   -190230.81   -225.72872    87.770595    87.888674    88.284775    4.0208121    1598.3258    72312.695 
  447000    601.23278   -192367.56            0   -190218.96   -232.96093    87.770595    87.888674    88.284775    4.6237902    1602.7196    72297.895 
  448000    596.95345   -192353.05            0   -190219.75   -277.22206    87.770595    87.888674    88.284775    4.8952487    1607.1305    72283.927 
  449000    601.14883   -192381.49            0   -190233.19   -179.22081    87.770595    87.888674    88.284775    4.0752556    1611.5695    72271.271 
  450000    604.69568   -192371.81            0   -190210.83    -347.2629    87.770595    87.888674    88.284775    4.5115814    1615.9836     72257.55 
  451000    600.72199   -192378.13            0   -190231.36   -685.15851    87.770595    87.888674    88.284775    4.7778639    1620.4707    72247.142 
  452000    603.17176   -192384.16            0   -190228.63   -487.74627    87.770595    87.888674    88.284775    4.0239843    1625.1733     72246.34 
  453000    598.11458   -192376.79            0   -190239.34   -434.52536    87.770595    87.888674    88.284775    4.5697172     1630.338    72266.001 
  454000    599.33552   -192380.12            0    -190238.3   -426.83022    87.770595    87.888674    88.284775    4.1076676    1635.1965    72271.989 
  455000     601.5034   -192367.37            0    -190217.8   -134.78373    87.770595    87.888674    88.284775     4.173337    1639.7073    72262.593 
  456000    598.17216   -192368.16            0    -190230.5   -483.75642    87.770595    87.888674    88.284775     4.654739    1644.0821     72247.25 
  457000    603.00302    -192366.1            0   -190211.18   -90.693615    87.770595    87.888674    88.284775    4.4509541    1648.4828    72233.101 
  458000    598.30576   -192376.96            0   -190238.82   -547.83851    87.770595    87.888674    88.284775    3.9938341    1652.8792    72218.818 
  459000    599.07415   -192381.17            0   -190240.29   -528.44833    87.770595    87.888674    88.284775      4.46762    1657.2516    72203.544 
  460000    599.34201   -192396.35            0    -190254.5   -573.56799    87.770595    87.888674    88.284775    4.9779917    1661.7691    72194.636 
  461000    607.39251   -192383.69            0   -190213.08   -230.85453    87.770595    87.888674    88.284775    5.0280842    1666.5369    72196.595 
  462000    601.56109    -192373.2            0   -190223.43   -337.68423    87.770595    87.888674    88.284775    4.3148948     1671.682    72214.816 
  463000    597.71498    -192391.9            0   -190255.88   -789.85307    87.770595    87.888674    88.284775    4.5707869    1676.5812    72222.313 
  464000    601.21033   -192364.29            0   -190215.77   -131.64046    87.770595    87.888674    88.284775    4.1137933    1681.0976    72213.301 
  465000    600.72498   -192377.37            0   -190230.58    -75.63155    87.770595    87.888674    88.284775    4.3177103    1685.4456    72197.101 
  466000    605.50085   -192365.38            0   -190201.53    19.797121    87.770595    87.888674    88.284775    4.3809838    1689.8642    72183.979 
  467000    596.08106   -192410.95            0   -190280.76   -305.58113    87.770595    87.888674    88.284775    4.5684029    1694.2524    72169.614 
  468000    600.77578   -192366.89            0   -190219.93   -531.98645    87.770595    87.888674    88.284775    4.5283089    1698.6373    72155.158 
  469000     599.9674   -192383.87            0   -190239.79   -281.57656    87.770595    87.888674    88.284775    4.4508414     1703.306    72152.782 
  470000    596.44559   -192369.33            0   -190237.84    -37.74374    87.770595    87.888674    88.284775    4.2727381    1708.3036    72164.284 
  471000    599.33164   -192375.54            0   -190233.74   -139.85871    87.770595    87.888674    88.284775    4.2087783    1713.2569    72173.832 
  472000    601.85027   -192371.34            0   -190220.53    -31.61197    87.770595    87.888674    88.284775    4.1530836    1718.0805    72177.854 
[...]
15980000    600.01213   -192394.44            0    -190250.2    237.39367    87.770595    87.888674    88.284775    4.0774387    73922.459      558.608 
15981000     601.9239   -192392.55            0   -190241.48   -263.49647    87.770595    87.888674    88.284775    5.4302647    73926.837    553.95086 
15982000    600.69524   -192415.08            0   -190268.41    -281.5513    87.770595    87.888674    88.284775    5.0726291      73931.3    549.29438 
15983000     599.2131   -192402.71            0   -190261.33   -173.58238    87.770595    87.888674    88.284775    4.3978524    73935.675    544.63728 
15984000    598.33171   -192418.44            0   -190280.21    401.41067    87.770595    87.888674    88.284775    3.9148918    73940.128    539.98079 
15985000    601.09615   -192416.24            0   -190268.13    267.41529    87.770595    87.888674    88.284775    4.2760702    73944.446    535.32334 
15986000    601.06162   -192407.13            0   -190259.14    91.287795    87.770595    87.888674    88.284775    4.6524089    73949.318    530.66991 
15987000     599.2014   -192433.69            0   -190292.35   -303.64409    87.770595    87.888674    88.284775    4.0581452    73954.333    526.01748 
15988000    600.58555    -192393.2            0   -190246.91   -243.92938    87.770595    87.888674    88.284775    4.5737867    73959.041    521.36283 
15989000    600.90706   -192403.46            0   -190256.02    133.77177    87.770595    87.888674    88.284775    3.7112879    73963.417    516.70585 
15990000    599.92412   -192399.33            0   -190255.41   -115.51465    87.770595    87.888674    88.284775    4.8222498    73967.776    512.04879 
15991000    602.47258   -192421.82            0   -190268.79    31.961661    87.770595    87.888674    88.284775    4.2537545    73972.146    507.39185 
15992000    604.16356    -192421.3            0   -190262.22   -162.40716    87.770595    87.888674    88.284775    4.6178207    73976.573    502.73533 
15993000    597.08231   -192410.71            0   -190276.94    7.3193493    87.770595    87.888674    88.284775    4.7242345    73981.011    498.07891 
15994000    600.89413   -192407.57            0   -190260.18   -200.30567    87.770595    87.888674    88.284775    4.2979022    73985.436    493.42244 
15995000    599.97838   -192411.99            0   -190267.87   -10.797345    87.770595    87.888674    88.284775    4.2747161    73990.431    488.76975 
15996000    600.02372   -192404.16            0   -190259.88    138.73625    87.770595    87.888674    88.284775    4.5619361    73995.482     484.1174 
15997000     598.5768   -192411.72            0   -190272.62   -334.73536    87.770595    87.888674    88.284775      4.83979    74000.122    479.46232 
15998000    595.58715   -192404.82            0   -190276.39   -402.29077    87.770595    87.888674    88.284775    4.2970663     74004.58    474.80608 
15999000    599.36667   -192413.92            0   -190271.99   -74.818023    87.770595    87.888674    88.284775    4.2780253    74008.975    470.14947 
16000000    599.69049   -192425.42            0   -190282.33   -27.537221    87.770595    87.888674    88.284775    4.8158225    74013.411    465.49315 
16001000    603.87721   -192400.48            0   -190242.44    -30.68813    87.770595    87.888674    88.284775    4.4690513    74017.926    460.83735 
16002000    603.24256   -192401.67            0   -190245.89   -266.13677    87.770595    87.888674    88.284775    4.7905138    74022.354    456.18103 
16003000    600.49926   -192440.56            0   -190294.58    160.00332    87.770595    87.888674    88.284775    4.3540974    74026.939    451.52569 
16004000    598.61751   -192416.11            0   -190276.86    36.056381    87.770595    87.888674    88.284775    4.6276923    74032.143     446.8741 
16005000    596.44621   -192392.35            0   -190260.86   -22.868311    87.770595    87.888674    88.284775    5.1582216    74037.028    442.22054 
16006000    600.06248   -192430.95            0   -190286.53   -276.19871    87.770595    87.888674    88.284775    4.3158167    74041.566     437.5649 
16007000    601.02054   -192398.83            0   -190250.98    114.14107    87.770595    87.888674    88.284775    4.0157507    74046.255    432.91015 
16008000     598.8117   -192402.77            0   -190262.82   -390.57629    87.770595    87.888674    88.284775     4.174886    74050.723    428.25412 
16009000    597.85505   -192411.93            0    -190275.4   -237.67303    87.770595    87.888674    88.284775    5.1138326    74055.136     423.5978 
16010000    596.64317   -192400.37            0   -190268.17   -265.33367    87.770595    87.888674    88.284775    4.0626999    74059.547     418.9415 
16011000    600.65472   -192399.48            0   -190252.94    -153.6732    87.770595    87.888674    88.284775    4.2139521    74064.069    414.28585 
16012000    601.71129    -192430.1            0   -190279.79   -164.29959    87.770595    87.888674    88.284775    3.9333123    74068.891    409.63187 
16013000    598.99616   -192397.34            0   -190256.73   -85.422851    87.770595    87.888674    88.284775    4.5809173    74074.088    404.97993 
16014000    602.61566   -192415.11            0   -190261.57   -202.65494    87.770595    87.888674    88.284775    4.2351069    74078.865    400.32565 
16015000    595.15643   -192408.13            0   -190281.25   -198.80508    87.770595    87.888674    88.284775    4.0784171    74083.254    395.66928 
16016000    601.58815   -192404.29            0   -190254.42    13.462596    87.770595    87.888674    88.284775    5.1330786    74087.659    391.01303 
16017000    598.27595   -192395.98            0   -190257.95    39.660061    87.770595    87.888674    88.284775     4.211731    74092.113    386.35706 
16018000    599.13221   -192424.88            0   -190283.79    37.733597    87.770595    87.888674    88.284775    5.7897849    74096.504     381.7008 
16019000    596.86218   -192413.89            0   -190280.92   -243.63586    87.770595    87.888674    88.284775    4.3039073    74101.007    377.04514 
16020000    603.95823    -192420.8            0   -190262.46   -123.36003    87.770595    87.888674    88.284775    4.0413943    74105.451     372.3892 
16021000    594.58996   -192422.48            0   -190297.62    38.757149    87.770595    87.888674    88.284775    4.1695007    74110.466    367.73612 
16022000    598.19281   -192402.15            0   -190264.42    59.006165    87.770595    87.888674    88.284775    3.9924948    74115.458    363.08289 
16023000    599.83496   -192408.23            0   -190264.63    2.4547314    87.770595    87.888674    88.284775     4.708027    74120.145    358.42813 
16024000    597.98047   -192415.81            0   -190278.84   -255.30339    87.770595    87.888674    88.284775    4.4930322    74124.627     353.7724 
16025000    600.71089   -192394.25            0   -190247.52    41.421561    87.770595    87.888674    88.284775    3.7236831    74128.962    349.11599 
16026000    597.66813   -192395.49            0   -190259.63   -170.27028    87.770595    87.888674    88.284775    4.5532169    74133.356     344.4599 
16027000    596.72578   -192415.28            0   -190282.79   -480.08994    87.770595    87.888674    88.284775    4.3035402    74137.741     339.8038 
16028000    602.44087   -192401.28            0   -190248.37    77.825331    87.770595    87.888674    88.284775    4.1258442    74142.105    335.14764 
16029000    603.18774   -192419.05            0   -190263.47   -389.42725    87.770595    87.888674    88.284775    4.1338039    74146.663    330.49238 
16030000    599.43166   -192387.94            0   -190245.78    -353.2455    87.770595    87.888674    88.284775    4.9096729    74151.912    325.84016 
16031000    598.10712   -192429.59            0   -190292.16   -37.868439    87.770595    87.888674    88.284775    4.8867234     74156.83    321.18645 
16032000    599.74613    -192413.9            0   -190270.61   -238.77969    87.770595    87.888674    88.284775    4.6428445    74161.226    316.53046 
16033000    598.41774   -192406.74            0    -190268.2   -20.331645    87.770595    87.888674    88.284775    4.2739753    74165.622    311.87452 
16034000    596.17028   -192432.95            0   -190302.44   -94.710822    87.770595    87.888674    88.284775    4.6278367    74170.102    307.21895 
16035000    596.38833   -192400.26            0   -190268.97   -450.66146    87.770595    87.888674    88.284775    4.4690624    74174.573    302.56337 
16036000    603.05653   -192407.66            0   -190252.54    227.01463    87.770595    87.888674    88.284775    4.0608125    74179.003    297.90764 
16037000    598.29175   -192420.18            0   -190282.09    366.52215    87.770595    87.888674    88.284775    4.5270149    74183.351    293.25162 
16038000    599.29352   -192391.49            0   -190249.82   -128.03181    87.770595    87.888674    88.284775    4.3176021    74188.106    288.59722 
16039000    603.98123   -192425.37            0   -190266.95    173.56426    87.770595    87.888674    88.284775    4.6717931    74193.335    283.94463 
16040000    599.26342   -192431.35            0   -190289.79   -18.663166    87.770595    87.888674    88.284775    4.4419834    74198.094    279.29019 
16041000    599.94482   -192418.92            0   -190274.92   -41.479264    87.770595    87.888674    88.284775    4.6300439    74202.522    274.63451 
16042000    597.82943   -192421.11            0   -190284.67    303.59109    87.770595    87.888674    88.284775    4.8905805    74206.988      269.979 
16043000    601.77097   -192406.33            0   -190255.81    635.03834    87.770595    87.888674    88.284775    4.7397559    74211.393     265.3233 
16044000    606.25085   -192394.15            0   -190227.61    530.33932    87.770595    87.888674    88.284775    4.7720257    74215.819     260.6677 
16045000    599.24083   -192393.42            0   -190251.94    -151.5274    87.770595    87.888674    88.284775    3.9687083    74220.282    256.01226 
16046000    595.71458   -192414.41            0   -190285.53   -248.41723    87.770595    87.888674    88.284775    3.9878905    74224.771    251.35693 
16047000    601.22515   -192403.88            0    -190255.3   -298.91184    87.770595    87.888674    88.284775    5.0032103    74229.782    246.70336 
16048000    599.31732   -192413.25            0    -190271.5   -476.83761    87.770595    87.888674    88.284775    4.3041383    74234.835    242.04988 
16049000    597.01274   -192418.51            0   -190284.99   -131.23401    87.770595    87.888674    88.284775    4.7392026    74239.448    237.39494 
16050000     602.1361   -192435.57            0   -190283.74   -168.95637    87.770595    87.888674    88.284775    4.4474923    74243.813    232.73923 
16051000    595.25451   -192419.01            0   -190291.77    172.72256    87.770595    87.888674    88.284775    4.6407015    74248.217    228.08367 
16052000    607.17062   -192422.65            0   -190252.83    133.18172    87.770595    87.888674    88.284775     4.814706    74252.675    223.42831 
16053000    602.35033   -192419.72            0   -190267.13    367.81093    87.770595    87.888674    88.284775    4.2105755    74257.137    218.77299 
16054000    602.06991   -192416.31            0   -190264.72   -74.729488    87.770595    87.888674    88.284775    4.1823744    74261.547    214.11754 
16055000    596.21351   -192426.91            0   -190296.24   -187.73423    87.770595    87.888674    88.284775    4.8068908    74266.089    209.46249 
16056000    601.31991   -192395.63            0   -190246.72   -226.21853    87.770595    87.888674    88.284775      4.37942    74271.232    204.80911 
16057000     599.1769   -192422.49            0   -190281.24   -228.00696    87.770595    87.888674    88.284775    4.1164942    74276.213    200.15524 
16058000    599.35454   -192439.85            0   -190297.96   -343.29219    87.770595    87.888674    88.284775    3.9022377    74280.696    195.50001 
16059000     600.3158    -192423.3            0   -190277.97    -598.3615    87.770595    87.888674    88.284775    4.4522009    74285.123    190.84467 
16060000    600.11476   -192395.02            0   -190250.42   -112.33065    87.770595    87.888674    88.284775    3.8608517    74289.524    186.18928 
16061000    601.38608   -192426.79            0   -190277.64   -253.24362    87.770595    87.888674    88.284775    4.5672753    74293.993     181.5341 
16062000     603.4021   -192437.17            0   -190280.82   -363.62389    87.770595    87.888674    88.284775    4.3574119    74298.471    176.87896 
16063000    598.35364      -192426            0   -190287.69   -294.26496    87.770595    87.888674    88.284775    5.3073606    74302.883    172.22368 
16064000    596.30391    -192397.6            0   -190266.62   -519.84838    87.770595    87.888674    88.284775     3.989553    74307.462    167.56882 
16065000    597.36272   -192428.59            0   -190293.82    -156.1736    87.770595    87.888674    88.284775    4.2063849    74312.606     162.9152 
16066000    606.28588   -192410.69            0   -190244.04   -186.96261    87.770595    87.888674    88.284775    5.2132891      74317.5    158.26099 
16067000    601.45332   -192403.58            0   -190254.19   -329.43483    87.770595    87.888674    88.284775    3.9931163     74322.04    153.60602 
16068000    594.96672   -192413.03            0   -190286.83   -17.727568    87.770595    87.888674    88.284775    4.7570596    74326.418    148.95074 
16069000    601.65722   -192414.71            0   -190264.59   -90.476497    87.770595    87.888674    88.284775    4.2058102    74330.795    144.29549 
16070000    599.26108   -192407.48            0   -190265.93   -285.93553    87.770595    87.888674    88.284775    4.0509914    74335.202    139.64033 
16071000    601.82632   -192425.62            0    -190274.9    400.76557    87.770595    87.888674    88.284775    4.3387589    74339.715    134.98539 
16072000    601.06691   -192425.97            0   -190277.96   -72.789117    87.770595    87.888674    88.284775    5.0448764    74344.186     130.3304 
16073000    598.21812   -192421.29            0   -190283.47    15.145105    87.770595    87.888674    88.284775    5.2014836    74348.994    125.67601 
16074000     597.0967   -192408.03            0   -190274.21   -195.04053    87.770595    87.888674    88.284775    4.8057686    74354.116     121.0221 
16075000    598.74379   -192409.81            0   -190270.11   -82.454706    87.770595    87.888674    88.284775    4.0293102    74358.851    116.36753 
16076000     597.6174    -192426.6            0   -190290.92   -473.26591    87.770595    87.888674    88.284775    4.8844441    74363.264    111.71246 
16077000    595.30075   -192420.84            0   -190293.44    -227.7178    87.770595    87.888674    88.284775    4.3363504    74367.643    107.05738 
16078000    602.33829   -192414.38            0   -190261.83    153.07316    87.770595    87.888674    88.284775    4.5884906    74372.118    102.40247 
16079000    602.44786   -192431.74            0    -190278.8    73.617058    87.770595    87.888674    88.284775    3.8940474    74376.476    97.747418 
16080000    599.20407   -192409.66            0   -190268.31    72.657317    87.770595    87.888674    88.284775    4.3520577    74380.947    93.092549 
16081000     599.9597   -192407.29            0   -190263.24    54.105039    87.770595    87.888674    88.284775    4.5573859    74385.263    88.437519 
16082000    598.11112   -192424.05            0   -190286.61    -86.74531    87.770595    87.888674    88.284775    4.3477409    74390.291    83.783334 
16083000    604.67983   -192416.35            0   -190255.44    5.7893204    87.770595    87.888674    88.284775    4.8244575    74395.369    79.129154 
16084000    598.22009   -192412.28            0   -190274.45    -10.26202    87.770595    87.888674    88.284775    3.6358252    74400.018    74.474493 
16085000    603.36879   -192415.96            0   -190259.73    340.84961    87.770595    87.888674    88.284775    4.3762028    74404.502    69.819677 
16086000    601.47256   -192428.52            0   -190279.07   -71.026446    87.770595    87.888674    88.284775    4.5149357    74408.967    65.164865 
16087000     599.4369   -192398.06            0   -190255.88     89.04236    87.770595    87.888674    88.284775    3.8123924    74413.429    60.510075 
16088000    600.55671   -192397.22            0   -190251.04    147.32303    87.770595    87.888674    88.284775    4.0986262    74417.815    55.855252 
16089000     604.5334   -192385.66            0   -190225.27   -21.640491    87.770595    87.888674    88.284775     4.951833    74422.154    51.200431 
16090000     602.0429   -192411.75            0   -190260.25    348.18617    87.770595    87.888674    88.284775    4.3522009    74426.624    46.545731 
16091000    604.43559   -192403.16            0   -190243.12   -357.41154    87.770595    87.888674    88.284775    5.1889878     74431.84    41.891474 
16092000    600.28299   -192406.45            0   -190261.25   -169.52211    87.770595    87.888674    88.284775    4.3777991    74436.687    37.236962 
16093000    597.21615   -192398.09            0   -190263.85   -171.60399    87.770595    87.888674    88.284775     4.585553    74441.278    32.582314 
16094000    595.09739   -192415.94            0   -190289.26   -128.79269    87.770595    87.888674    88.284775    5.2130134    74445.745    27.927627 
16095000     603.2868   -192419.23            0   -190263.29   -199.70074    87.770595    87.888674    88.284775     4.435606    74450.145    23.272943 
16096000    595.33372   -192419.66            0   -190292.15    -262.1543    87.770595    87.888674    88.284775    4.7712905    74454.582      18.6183 
16097000    602.62778    -192407.8            0   -190254.22    31.645972    87.770595    87.888674    88.284775    4.6668976     74459.12    13.963703 
16098000    600.51339   -192395.49            0   -190249.46   -25.227633    87.770595    87.888674    88.284775    3.9212051     74463.57    9.3091098 
16099000     603.7823   -192417.95            0   -190260.24   -32.305783    87.770595    87.888674    88.284775    4.3760289     74468.34    4.6545622 
16100000    594.96164   -192415.31            0   -190289.12   -314.83336    87.770595    87.888674    88.284775    4.1923172    74473.576            0 
Loop time of 74473.6 on 160 procs for 16000000 steps with 27648 atoms

Performance: 18.562 ns/day, 1.293 hours/ns, 214.841 timesteps/s
98.7% CPU use with 160 MPI tasks x 1 OpenMP threads

MPI task timing breakdown:
Section |  min time  |  avg time  |  max time  |%varavg| %total
---------------------------------------------------------------
Pair    | 15449      | 16813      | 18764      | 682.9 | 22.58
Kspace  | 43045      | 44745      | 46311      | 440.1 | 60.08
Neigh   | 499.6      | 524.56     | 550.13     |  66.6 |  0.70
Comm    | 9018.4     | 9569.8     | 10913      | 309.3 | 12.85
Output  | 745.84     | 745.86     | 745.88     |   0.0 |  1.00
Modify  | 1604.9     | 1833.4     | 2037.1     | 247.8 |  2.46
Other   |            | 241.7      |            |       |  0.32

Nlocal:    172.8 ave 186 max 154 min
Histogram: 1 2 5 13 23 47 27 23 11 8
Nghost:    3433.96 ave 3482 max 3390 min
Histogram: 7 14 15 24 23 24 31 10 9 3
Neighs:    40246.4 ave 46595 max 32702 min
Histogram: 1 3 19 24 31 16 24 19 15 8

Total # of neighbors = 6439417
Ave neighs/atom = 232.907
Neighbor list builds = 570876
Dangerous builds = 0

# Final Commands
variable        final_energy equal etotal
print           "final_energy: ${'final_energy'}"
ERROR on proc 0: Substitution for illegal variable 'final_energy' (../input.cpp:553)
Last command: final_energy: ${'final_energy'
