********************************************************************************
*                       GENERAL UTILITY LATTICE PROGRAM                        *
*                                 Julian Gale                                  *
*                       Curtin Institute for Computation                       *
*                    School of Molecular and Life Sciences                     *
*                    Curtin University, Western Australia                      *
********************************************************************************
* Version = 5.2.0 * Last modified =   1st June 2020                            *
********************************************************************************
*  fit          - perform fitting run                                          *
*  optimise     - perform optimisation run after fitting                       *
*  conp         - constant pressure calculation                                *
*  nosymmetry   - turn off symmetry after initial structure generation         *
*  simultaneous - relax shell positions and radii during fitting               *
*  compare      - compare initial and final structures                         *
********************************************************************************

  Job Started  at 15:34.11  4th April      2022                               

  Number of CPUs =     1


  Total number of configurations input =      1

********************************************************************************
*  Input for Configuration =   1                                               *
********************************************************************************

  Formula = Sc2Cl6                                                      

  Number of irreducible atoms/shells =       8


  Total number atoms/shells =       8

  Dimensionality = 3               :  Bulk   



  Cartesian lattice vectors (Angstroms) :

        7.453100    0.000000    0.000000
        4.624571    5.844830    0.000000
        4.624571    2.238000    5.399388

  Cell parameters (Angstroms/Degrees):

  a =       7.4531    alpha =  51.6481
  b =       7.4531    beta  =  51.6481
  c =       7.4531    gamma =  51.6481

  Initial cell volume =         235.208707 Angs**3

  Temperature of configuration =   0.00     K 

  Pressure of configuration =         0.000 GPa 

  Fractional coordinates of asymmetric unit :

--------------------------------------------------------------------------------
   No.  Atomic       x           y          z         Charge      Occupancy
        Label      (Frac)      (Frac)     (Frac)        (e)         (Frac)  
--------------------------------------------------------------------------------
      1 Sc    c    0.666064    0.666064    0.666064     3.00000    1.000000    
      2 Sc    c    0.333936 *  0.333936 *  0.333936 *   3.00000    1.000000    
      3 Cl    c    0.294736 *  0.926265 *  0.556066 *  -1.00000    1.000000    
      4 Cl    c    0.926265 *  0.556066 *  0.294736 *  -1.00000    1.000000    
      5 Cl    c    0.443934 *  0.705264 *  0.073735 *  -1.00000    1.000000    
      6 Cl    c    0.073735 *  0.443934 *  0.705264 *  -1.00000    1.000000    
      7 Cl    c    0.705264 *  0.073735 *  0.443934 *  -1.00000    1.000000    
      8 Cl    c    0.556066 *  0.294736 *  0.926265 *  -1.00000    1.000000    
--------------------------------------------------------------------------------



********************************************************************************
*  General input information                                                   *
********************************************************************************

  Species output for all configurations : 

--------------------------------------------------------------------------------
  Species    Type    Atomic    Atomic    Charge       Radii (Angs)     Library
                     Number     Mass       (e)     Cova   Ionic  VDW   Symbol
--------------------------------------------------------------------------------
    Sc       Core       21      44.96   3.000000   1.440  0.000  2.150          
    Cl       Core       17      35.45  -1.000000   0.990  0.000  1.650          
--------------------------------------------------------------------------------


  Lattice summation method               =    Ewald          (3-D)
                                         =    Parry          (2-D)
                                         =    Saunders et al (1-D)
  Accuracy factor for lattice sums       =   12.000


  Analytic derivatives to be used

  Time limit = Infinity

  Maximum range for interatomic potentials =    100000.000000 Angstroms

  General interatomic potentials :

--------------------------------------------------------------------------------
Atom  Types   Potential      Parameter       Value         Units   Cutoffs(Ang)
  1     2                                                            Min /  Max 
--------------------------------------------------------------------------------
Cl   c Sc   c Buckingham    Buckingham A     1736.1200    eV        0.000 12.000
                            Buckingham rho  0.29270000    Ang       
                            Buckingham C     0.0000000    eV*Ang^6  
--------------------------------------------------------------------------------
Cl   c Cl   c Buckingham    Buckingham A     1227.2000    eV        0.000 12.000
                            Buckingham rho  0.32100000    Ang       
                            Buckingham C     14.530000    eV*Ang^6  
--------------------------------------------------------------------------------


  Number of variables   =    2
  Number of observables =   27

--------------------------------------------------------------------------------
   Observable no.  Type           Observable    Weight       Reference  Confign 
--------------------------------------------------------------------------------
          1        Derivative        0.000000        1.0000    2 x         1
          2        Derivative        0.000000        1.0000    2 y         1
          3        Derivative        0.000000        1.0000    2 z         1
          4        Derivative        0.000000        1.0000    3 x         1
          5        Derivative        0.000000        1.0000    3 y         1
          6        Derivative        0.000000        1.0000    3 z         1
          7        Derivative        0.000000        1.0000    4 x         1
          8        Derivative        0.000000        1.0000    4 y         1
          9        Derivative        0.000000        1.0000    4 z         1
         10        Derivative        0.000000        1.0000    5 x         1
         11        Derivative        0.000000        1.0000    5 y         1
         12        Derivative        0.000000        1.0000    5 z         1
         13        Derivative        0.000000        1.0000    6 x         1
         14        Derivative        0.000000        1.0000    6 y         1
         15        Derivative        0.000000        1.0000    6 z         1
         16        Derivative        0.000000        1.0000    7 x         1
         17        Derivative        0.000000        1.0000    7 y         1
         18        Derivative        0.000000        1.0000    7 z         1
         19        Derivative        0.000000        1.0000    8 x         1
         20        Derivative        0.000000        1.0000    8 y         1
         21        Derivative        0.000000        1.0000    8 z         1
         22        Derivative        0.000000        1.0000    a           1
         23        Derivative        0.000000        1.0000    b           1
         24        Derivative        0.000000        1.0000    c           1
         25        Derivative        0.000000        1.0000    alpha       1
         26        Derivative        0.000000        1.0000    beta        1
         27        Derivative        0.000000        1.0000    gamma       1
--------------------------------------------------------------------------------

  Variables :

--------------------------------------------------------------------------------
     Parameter No.       Parameter Value          Parameter Type  Species
--------------------------------------------------------------------------------
             1               1736.120000          Buckingham A   
             2                  0.292700          Buckingham rho 
--------------------------------------------------------------------------------

  Simultaneous optimisation will be performed during fitting
  First derivatives of residuals to be used in fitting

  Maximum no. of cycles   =       5000
  Maximum step size       =  1000.0000
  Tolerance on parameters =  0.0000100
  Tolerance on function   =  0.0000100
  Tolerance on gradient   =  0.0001000
  Differencing interval   =  0.0001000

  Start of fitting :

  Cycle:      0  Sum sqs:   17161.776176  Gnorm:  78975.897250  CPU:    0.010
  ** Hessian calculated **
  Cycle:      1  Sum sqs:    1413.465358  Gnorm:  11617.780187  CPU:    0.031
  Cycle:      2  Sum sqs:    1360.259172  Gnorm:     99.215971  CPU:    0.042
  Cycle:      3  Sum sqs:    1359.458815  Gnorm:    671.461990  CPU:    0.054
  Cycle:      4  Sum sqs:    1359.121751  Gnorm:   1588.758174  CPU:    0.064
  Cycle:      5  Sum sqs:    1358.088725  Gnorm:    160.256501  CPU:    0.074
  Cycle:      6  Sum sqs:    1357.925838  Gnorm:    124.909337  CPU:    0.086
  Cycle:      7  Sum sqs:    1357.742019  Gnorm:     79.890068  CPU:    0.098
  Cycle:      8  Sum sqs:    1357.378029  Gnorm:     73.505034  CPU:    0.111
  Cycle:      9  Sum sqs:    1356.844662  Gnorm:    595.603172  CPU:    0.122
  Cycle:     10  Sum sqs:    1356.644789  Gnorm:   1297.863852  CPU:    0.130
  Cycle:     11  Sum sqs:    1356.033624  Gnorm:     94.248489  CPU:    0.139
  Cycle:     12  Sum sqs:    1355.892908  Gnorm:     71.167118  CPU:    0.152
  Cycle:     13  Sum sqs:    1355.677235  Gnorm:     19.410270  CPU:    0.164
  Cycle:     14  Sum sqs:    1355.255249  Gnorm:    220.636582  CPU:    0.176
  Cycle:     15  Sum sqs:    1354.842597  Gnorm:    845.901583  CPU:    0.187
  Cycle:     16  Sum sqs:    1354.542969  Gnorm:   1313.472815  CPU:    0.196
  Cycle:     17  Sum sqs:    1352.258185  Gnorm:    119.582098  CPU:    0.213
  Cycle:     18  Sum sqs:    1352.187642  Gnorm:    550.186433  CPU:    0.223
  Cycle:     19  Sum sqs:    1351.753567  Gnorm:    945.813663  CPU:    0.234
  Cycle:     20  Sum sqs:    1350.923517  Gnorm:   1078.254732  CPU:    0.243
  ** Hessian calculated **
  Cycle:     21  Sum sqs:    1350.614408  Gnorm:     36.345704  CPU:    0.257
  Cycle:     22  Sum sqs:    1350.353519  Gnorm:    265.046554  CPU:    0.269
  Cycle:     23  Sum sqs:    1350.134258  Gnorm:    790.897899  CPU:    0.279
  Cycle:     24  Sum sqs:    1349.845704  Gnorm:   1167.590840  CPU:    0.288
  Cycle:     25  Sum sqs:    1349.212028  Gnorm:    234.496340  CPU:    0.296
  Cycle:     26  Sum sqs:    1348.934924  Gnorm:    261.711797  CPU:    0.307
  Cycle:     27  Sum sqs:    1348.835393  Gnorm:   1068.954313  CPU:    0.315
  Cycle:     28  Sum sqs:    1348.644476  Gnorm:    136.512393  CPU:    0.324
  Cycle:     29  Sum sqs:    1348.331789  Gnorm:    324.035568  CPU:    0.337
  Cycle:     30  Sum sqs:    1348.168625  Gnorm:    802.150491  CPU:    0.347
  Cycle:     31  Sum sqs:    1347.788140  Gnorm:   1122.079431  CPU:    0.357
  Cycle:     32  Sum sqs:    1347.466677  Gnorm:    142.854581  CPU:    0.366
  Cycle:     33  Sum sqs:    1347.387307  Gnorm:     77.501444  CPU:    0.377
  Cycle:     34  Sum sqs:    1347.287398  Gnorm:     49.585161  CPU:    0.388
  Cycle:     35  Sum sqs:    1347.145679  Gnorm:    447.116716  CPU:    0.400
  Cycle:     36  Sum sqs:    1347.098431  Gnorm:    853.530372  CPU:    0.410
  Cycle:     37  Sum sqs:    1346.861658  Gnorm:    201.168362  CPU:    0.420
  Cycle:     38  Sum sqs:    1346.666558  Gnorm:    153.286638  CPU:    0.434
  Cycle:     39  Sum sqs:    1346.597632  Gnorm:    378.007844  CPU:    0.444
  Cycle:     40  Sum sqs:    1346.519510  Gnorm:    740.705933  CPU:    0.456
  ** Hessian calculated **
  Cycle:     41  Sum sqs:    1346.411335  Gnorm:     22.804646  CPU:    0.472
  Cycle:     42  Sum sqs:    1346.259780  Gnorm:    326.684452  CPU:    0.486
  Cycle:     43  Sum sqs:    1346.200717  Gnorm:    972.645916  CPU:    0.496
  Cycle:     44  Sum sqs:    1346.053428  Gnorm:     61.370560  CPU:    0.507
  Cycle:     45  Sum sqs:    1345.951439  Gnorm:    103.898810  CPU:    0.522
  Cycle:     46  Sum sqs:    1345.837608  Gnorm:    358.634209  CPU:    0.534
  Cycle:     47  Sum sqs:    1345.787992  Gnorm:    463.656592  CPU:    0.544
  Cycle:     48  Sum sqs:    1345.668287  Gnorm:    749.237738  CPU:    0.556
  Cycle:     49  Sum sqs:    1345.300163  Gnorm:    838.966617  CPU:    0.567
  Cycle:     50  Sum sqs:    1345.188622  Gnorm:     21.404220  CPU:    0.579
  Cycle:     51  Sum sqs:    1345.141503  Gnorm:     39.291017  CPU:    0.597
  Cycle:     52  Sum sqs:    1345.073143  Gnorm:    148.857498  CPU:    0.611
  Cycle:     53  Sum sqs:    1344.993408  Gnorm:    447.719361  CPU:    0.623
  Cycle:     54  Sum sqs:    1344.947980  Gnorm:    914.493854  CPU:    0.632
  Cycle:     55  Sum sqs:    1344.813704  Gnorm:      8.621729  CPU:    0.641
  Cycle:     56  Sum sqs:    1344.797153  Gnorm:      3.945236  CPU:    0.655
  Cycle:     57  Sum sqs:    1344.771175  Gnorm:     14.416409  CPU:    0.668
  Cycle:     58  Sum sqs:    1344.726234  Gnorm:     74.762044  CPU:    0.682
  Cycle:     59  Sum sqs:    1344.662355  Gnorm:    258.119348  CPU:    0.694
  Cycle:     60  Sum sqs:    1344.635762  Gnorm:    353.666310  CPU:    0.703
  ** Hessian calculated **
  Cycle:     61  Sum sqs:    1344.615154  Gnorm:     15.685803  CPU:    0.716
  Cycle:     62  Sum sqs:    1344.519746  Gnorm:    304.032078  CPU:    0.727
  Cycle:     63  Sum sqs:    1344.486820  Gnorm:    717.273819  CPU:    0.737
  Cycle:     64  Sum sqs:    1344.371916  Gnorm:    157.900428  CPU:    0.747
  Cycle:     65  Sum sqs:    1344.326843  Gnorm:     51.777376  CPU:    0.761
  Cycle:     66  Sum sqs:    1344.273491  Gnorm:    181.294594  CPU:    0.775
  Cycle:     67  Sum sqs:    1344.251345  Gnorm:    641.789143  CPU:    0.786
  Cycle:     68  Sum sqs:    1344.221792  Gnorm:    191.261630  CPU:    0.797
  Cycle:     69  Sum sqs:    1344.117229  Gnorm:    337.651869  CPU:    0.811
  Cycle:     70  Sum sqs:    1344.077770  Gnorm:    468.679570  CPU:    0.822
  Cycle:     71  Sum sqs:    1343.961963  Gnorm:    616.038306  CPU:    0.833
  Cycle:     72  Sum sqs:    1343.889097  Gnorm:    128.162342  CPU:    0.844
  Cycle:     73  Sum sqs:    1343.863832  Gnorm:     69.580061  CPU:    0.858
  Cycle:     74  Sum sqs:    1343.828534  Gnorm:     80.061594  CPU:    0.873
  Cycle:     75  Sum sqs:    1343.801663  Gnorm:    391.468137  CPU:    0.884
  Cycle:     76  Sum sqs:    1343.780962  Gnorm:    593.969507  CPU:    0.897
  Cycle:     77  Sum sqs:    1343.606743  Gnorm:    795.906620  CPU:    0.908
  Cycle:     78  Sum sqs:    1343.536746  Gnorm:     26.782336  CPU:    0.920
  Cycle:     79  Sum sqs:    1343.517211  Gnorm:     36.368279  CPU:    0.938
  Cycle:     80  Sum sqs:    1343.489636  Gnorm:    126.068191  CPU:    0.951
  ** Hessian calculated **
  Cycle:     81  Sum sqs:    1343.487363  Gnorm:      9.940742  CPU:    0.967
  Cycle:     82  Sum sqs:    1343.444470  Gnorm:    507.167264  CPU:    0.977
  Cycle:     83  Sum sqs:    1343.409855  Gnorm:     30.185381  CPU:    0.989
  Cycle:     84  Sum sqs:    1343.364019  Gnorm:    200.571826  CPU:    1.003
  Cycle:     85  Sum sqs:    1343.350531  Gnorm:    480.933532  CPU:    1.011
  Cycle:     86  Sum sqs:    1343.285413  Gnorm:    193.579351  CPU:    1.022
  Cycle:     87  Sum sqs:    1343.250337  Gnorm:     76.866529  CPU:    1.033
  Cycle:     88  Sum sqs:    1343.239234  Gnorm:    433.548349  CPU:    1.043
  Cycle:     89  Sum sqs:    1343.221329  Gnorm:     36.106488  CPU:    1.055
  Cycle:     90  Sum sqs:    1343.204807  Gnorm:     53.235674  CPU:    1.074
  Cycle:     91  Sum sqs:    1343.185055  Gnorm:    151.775183  CPU:    1.093
  Cycle:     92  Sum sqs:    1343.167139  Gnorm:    346.428900  CPU:    1.113
  Cycle:     93  Sum sqs:    1343.139864  Gnorm:    488.168541  CPU:    1.130
  Cycle:     94  Sum sqs:    1343.095154  Gnorm:    122.332396  CPU:    1.140
  Cycle:     95  Sum sqs:    1343.081816  Gnorm:     43.420190  CPU:    1.151
  Cycle:     96  Sum sqs:    1343.065614  Gnorm:    119.270488  CPU:    1.162
  Cycle:     97  Sum sqs:    1343.059278  Gnorm:    380.536372  CPU:    1.171
  Cycle:     98  Sum sqs:    1343.048863  Gnorm:     70.296853  CPU:    1.181
  Cycle:     99  Sum sqs:    1343.023928  Gnorm:    148.142825  CPU:    1.203
  Cycle:    100  Sum sqs:    1343.014447  Gnorm:    229.341364  CPU:    1.220
  ** Hessian calculated **
  Cycle:    101  Sum sqs:    1343.008577  Gnorm:      5.970366  CPU:    1.247
  Cycle:    102  Sum sqs:    1342.994797  Gnorm:    332.565904  CPU:    1.265
  Cycle:    103  Sum sqs:    1342.913983  Gnorm:     98.344220  CPU:    1.285
  Cycle:    104  Sum sqs:    1342.898709  Gnorm:    277.206904  CPU:    1.296
  Cycle:    105  Sum sqs:    1342.869870  Gnorm:    313.297687  CPU:    1.309
  Cycle:    106  Sum sqs:    1342.857869  Gnorm:     39.930142  CPU:    1.319
  Cycle:    107  Sum sqs:    1342.852257  Gnorm:     13.655991  CPU:    1.334
  Cycle:    108  Sum sqs:    1342.845309  Gnorm:     48.756570  CPU:    1.349
  Cycle:    109  Sum sqs:    1342.838544  Gnorm:    201.371435  CPU:    1.361
  Cycle:    110  Sum sqs:    1342.834976  Gnorm:    341.394184  CPU:    1.371
  Cycle:    111  Sum sqs:    1342.818120  Gnorm:     63.144332  CPU:    1.381
  Cycle:    112  Sum sqs:    1342.814993  Gnorm:     41.560759  CPU:    1.394
  Cycle:    113  Sum sqs:    1342.811143  Gnorm:      4.976978  CPU:    1.409
  Cycle:    114  Sum sqs:    1342.804840  Gnorm:    115.631729  CPU:    1.423
  Cycle:    115  Sum sqs:    1342.803129  Gnorm:    230.535412  CPU:    1.433
  Cycle:    116  Sum sqs:    1342.789344  Gnorm:    105.375373  CPU:    1.444
  Cycle:    117  Sum sqs:    1342.782590  Gnorm:     22.352500  CPU:    1.458
  Cycle:    118  Sum sqs:    1342.776890  Gnorm:    133.673609  CPU:    1.471
  Cycle:    119  Sum sqs:    1342.775283  Gnorm:    235.336696  CPU:    1.482
  Cycle:    120  Sum sqs:    1342.754407  Gnorm:     57.388414  CPU:    1.495
  ** Hessian calculated **
  Cycle:    121  Sum sqs:    1342.754075  Gnorm:      2.858866  CPU:    1.512
  Cycle:    122  Sum sqs:    1342.752684  Gnorm:    115.428044  CPU:    1.524
  Cycle:    123  Sum sqs:    1342.747119  Gnorm:    201.472771  CPU:    1.536
  Cycle:    124  Sum sqs:    1342.734820  Gnorm:    269.137379  CPU:    1.547
  Cycle:    125  Sum sqs:    1342.728301  Gnorm:      0.503654  CPU:    1.561
  Cycle:    126  Sum sqs:    1342.724001  Gnorm:     46.589865  CPU:    1.575
  Cycle:    127  Sum sqs:    1342.721481  Gnorm:    143.379682  CPU:    1.587
  Cycle:    128  Sum sqs:    1342.718304  Gnorm:    203.036263  CPU:    1.598
  Cycle:    129  Sum sqs:    1342.711187  Gnorm:     32.566729  CPU:    1.607
  Cycle:    130  Sum sqs:    1342.708338  Gnorm:     63.873109  CPU:    1.619
  Cycle:    131  Sum sqs:    1342.707410  Gnorm:    156.918172  CPU:    1.629
  Cycle:    132  Sum sqs:    1342.702390  Gnorm:     57.852009  CPU:    1.640
  Cycle:    133  Sum sqs:    1342.699832  Gnorm:     41.578694  CPU:    1.651
  Cycle:    134  Sum sqs:    1342.699205  Gnorm:    117.051605  CPU:    1.659
  Cycle:    135  Sum sqs:    1342.694912  Gnorm:    135.685989  CPU:    1.668
  Cycle:    136  Sum sqs:    1342.693301  Gnorm:      3.200811  CPU:    1.677
  Cycle:    137  Sum sqs:    1342.692919  Gnorm:      0.641563  CPU:    1.689
  Cycle:    138  Sum sqs:    1342.692185  Gnorm:     11.738633  CPU:    1.702
  Cycle:    139  Sum sqs:    1342.691266  Gnorm:     49.948650  CPU:    1.712
  Cycle:    140  Sum sqs:    1342.690866  Gnorm:    111.275900  CPU:    1.720
  ** Hessian calculated **
  Cycle:    141  Sum sqs:    1342.689822  Gnorm:      0.898720  CPU:    1.733
  Cycle:    142  Sum sqs:    1342.689817  Gnorm:      7.253647  CPU:    1.741
  Cycle:    143  Sum sqs:    1342.689655  Gnorm:     48.700356  CPU:    1.750
  Cycle:    144  Sum sqs:    1342.689149  Gnorm:     76.264959  CPU:    1.759
  Cycle:    145  Sum sqs:    1342.688241  Gnorm:     93.304280  CPU:    1.768
  Cycle:    146  Sum sqs:    1342.687103  Gnorm:     27.841033  CPU:    1.776
  Cycle:    147  Sum sqs:    1342.686533  Gnorm:     16.525654  CPU:    1.786
  Cycle:    148  Sum sqs:    1342.686404  Gnorm:     49.585245  CPU:    1.795
  Cycle:    149  Sum sqs:    1342.686194  Gnorm:     64.769925  CPU:    1.804
  Cycle:    150  Sum sqs:    1342.685438  Gnorm:     10.825486  CPU:    1.815
  Cycle:    151  Sum sqs:    1342.685410  Gnorm:     24.281504  CPU:    1.824
  Cycle:    152  Sum sqs:    1342.685336  Gnorm:     32.500479  CPU:    1.833
  Cycle:    153  Sum sqs:    1342.685238  Gnorm:     27.779383  CPU:    1.842
  Cycle:    154  Sum sqs:    1342.685162  Gnorm:      0.896971  CPU:    1.850
  Cycle:    155  Sum sqs:    1342.685161  Gnorm:      0.870373  CPU:    1.859
  Cycle:    156  Sum sqs:    1342.685161  Gnorm:      1.018909  CPU:    1.867


  **** Fit completed successfully ****


  Final sum of squares =          1342.685161

  Final gradient norm  =             1.018909

  Final values of parameters :

--------------------------------------------------------------------------------
 Parameter No.    Parameter        Parameter      Parameter Type  Species
                  Original         Final                                 
--------------------------------------------------------------------------------
         1           1736.120000     26156.477192 Buckingham A   
         2              0.292700         0.249878 Buckingham rho 
--------------------------------------------------------------------------------


  Final values of numerical parameter gradients :

--------------------------------------------------------------------------------
     Parameter No.       Parameter Gradient      Parameter Type  Species
--------------------------------------------------------------------------------
             1                 -0.007985          Buckingham A   
             2                 -1.018878          Buckingham rho 
--------------------------------------------------------------------------------


  Final values of residuals :

--------------------------------------------------------------------------------
   Observable no.  Type            Observable   Calculated    Residual  Error(%)
--------------------------------------------------------------------------------
          1        Derivative         0.00000      0.97387      0.94842
          2        Derivative         0.00000      0.97387      0.94842
          3        Derivative         0.00000      0.97387      0.94842
          4        Derivative         0.00000     -2.26047      5.10971
          5        Derivative         0.00000     -3.84155     14.75749
          6        Derivative         0.00000     -4.90889     24.09722
          7        Derivative         0.00000     -3.84155     14.75749
          8        Derivative         0.00000     -4.90889     24.09722
          9        Derivative         0.00000     -2.26047      5.10971
         10        Derivative         0.00000      4.90889     24.09722
         11        Derivative         0.00000      2.26047      5.10971
         12        Derivative         0.00000      3.84155     14.75749
         13        Derivative         0.00000      3.84155     14.75749
         14        Derivative         0.00000      4.90889     24.09722
         15        Derivative         0.00000      2.26047      5.10971
         16        Derivative         0.00000      2.26047      5.10971
         17        Derivative         0.00000      3.84155     14.75749
         18        Derivative         0.00000      4.90889     24.09722
         19        Derivative         0.00000     -4.90889     24.09722
         20        Derivative         0.00000     -2.26047      5.10971
         21        Derivative         0.00000     -3.84155     14.75749
         22        Derivative         0.00000     -2.51740      6.33729
         23        Derivative         0.00000    -19.59036    383.78222
         24        Derivative         0.00000    -22.48167    505.42552
         25        Derivative         0.00000      3.48778     12.16461
         26        Derivative         0.00000      7.20710     51.94226
         27        Derivative         0.00000     10.78895    116.40152
--------------------------------------------------------------------------------

  Comparison of initial and final observables :

--------------------------------------------------------------------------------
   Observable no.  Type            Observable   Initial       Final             
--------------------------------------------------------------------------------
          1        Derivative         0.00000      0.10820      0.97387
          2        Derivative         0.00000      0.10820      0.97387
          3        Derivative         0.00000      0.10820      0.97387
          4        Derivative         0.00000    -35.36241     -2.26047
          5        Derivative         0.00000    -28.78159     -3.84155
          6        Derivative         0.00000    -22.91290     -4.90889
          7        Derivative         0.00000    -28.78159     -3.84155
          8        Derivative         0.00000    -22.91290     -4.90889
          9        Derivative         0.00000    -35.36241     -2.26047
         10        Derivative         0.00000     22.91290      4.90889
         11        Derivative         0.00000     35.36241      2.26047
         12        Derivative         0.00000     28.78159      3.84155
         13        Derivative         0.00000     28.78159      3.84155
         14        Derivative         0.00000     22.91290      4.90889
         15        Derivative         0.00000     35.36241      2.26047
         16        Derivative         0.00000     35.36241      2.26047
         17        Derivative         0.00000     28.78159      3.84155
         18        Derivative         0.00000     22.91290      4.90889
         19        Derivative         0.00000    -22.91290     -4.90889
         20        Derivative         0.00000    -35.36241     -2.26047
         21        Derivative         0.00000    -28.78159     -3.84155
         22        Derivative         0.00000     31.61471     -2.51740
         23        Derivative         0.00000     15.06143    -19.59036
         24        Derivative         0.00000     12.25813    -22.48167
         25        Derivative         0.00000      3.38162      3.48778
         26        Derivative         0.00000      6.98772      7.20710
         27        Derivative         0.00000     10.46055     10.78895
--------------------------------------------------------------------------------

  Maximum range for interatomic potentials =    100000.000000 Angstroms

  General interatomic potentials :

--------------------------------------------------------------------------------
Atom  Types   Potential      Parameter       Value         Units   Cutoffs(Ang)
  1     2                                                            Min /  Max 
--------------------------------------------------------------------------------
Cl   c Sc   c Buckingham    Buckingham A     26156.477    eV        0.000 12.000
                            Buckingham rho  0.24987817    Ang       
                            Buckingham C     0.0000000    eV*Ang^6  
--------------------------------------------------------------------------------
Cl   c Cl   c Buckingham    Buckingham A     1227.2000    eV        0.000 12.000
                            Buckingham rho  0.32100000    Ang       
                            Buckingham C     14.530000    eV*Ang^6  
--------------------------------------------------------------------------------



  Total time to end of fitting =       1.8681 seconds

********************************************************************************
*  Output for configuration   1                                                *
********************************************************************************


  Components of energy : 

--------------------------------------------------------------------------------
  Interatomic potentials     =          13.89609169 eV    
  Monopole - monopole (real) =         -33.22807637 eV    
  Monopole - monopole (recip)=         -63.15193379 eV    
  Monopole - monopole (total)=         -96.38001017 eV    
--------------------------------------------------------------------------------
  Total lattice energy       =         -82.48391848 eV    
--------------------------------------------------------------------------------
  Total lattice energy       =           -7958.4373 kJ/(mole unit cells)
--------------------------------------------------------------------------------


  Number of variables =       27

  Maximum number of calculations  =          1000
  Maximum Hessian update interval =            10
  Maximum step size               =   1.000000000
  Maximum parameter tolerance     =   0.000010000
  Maximum function  tolerance     =   0.000010000
  Maximum gradient  tolerance     =   0.001000000
  Maximum gradient  component     =   0.010000000

  Cell parameters to be optimised using strains

  Newton-Raphson optimiser to be used

  BFGS hessian update to be used

  Lower half triangular hessian to be used

  Start of bulk optimisation :

  Cycle:      0 Energy:       -82.483918  Gnorm:      1.357136  CPU:    1.871
  ** Hessian calculated **
  Cycle:      1 Energy:       -86.786913  Gnorm:      0.294825  CPU:    1.875
  Cycle:      2 Energy:       -86.895212  Gnorm:      0.228061  CPU:    1.878
  ** Hessian calculated **
  Cycle:      3 Energy:       -87.077503  Gnorm:      0.124807  CPU:    1.884
  Cycle:      4 Energy:       -87.115511  Gnorm:      0.129488  CPU:    1.887
  Cycle:      5 Energy:       -87.387531  Gnorm:      0.357245  CPU:    1.893
  ** Hessian calculated **
  Cycle:      6 Energy:       -87.489367  Gnorm:      0.146858  CPU:    1.897
  Cycle:      7 Energy:       -87.547400  Gnorm:      0.270668  CPU:    1.900
  Cycle:      8 Energy:       -88.161795  Gnorm:      0.426867  CPU:    1.905
  Cycle:      9 Energy:       -88.259150  Gnorm:      0.471962  CPU:    1.907
  Cycle:     10 Energy:       -88.555756  Gnorm:      0.196963  CPU:    1.908
  Cycle:     11 Energy:       -88.627953  Gnorm:      0.129379  CPU:    1.909
  Cycle:     12 Energy:       -88.657943  Gnorm:      0.062807  CPU:    1.910
  Cycle:     13 Energy:       -88.663696  Gnorm:      0.047675  CPU:    1.912
  Cycle:     14 Energy:       -88.671235  Gnorm:      0.046485  CPU:    1.913
  Cycle:     15 Energy:       -88.687461  Gnorm:      0.080947  CPU:    1.916
  ** Hessian calculated **
  Cycle:     16 Energy:       -88.724358  Gnorm:      0.056126  CPU:    1.921
  Cycle:     17 Energy:       -88.733814  Gnorm:      0.013843  CPU:    1.924
  Cycle:     18 Energy:       -88.734330  Gnorm:      0.005040  CPU:    1.927
  Cycle:     19 Energy:       -88.734385  Gnorm:      0.005646  CPU:    1.930
  Cycle:     20 Energy:       -88.737560  Gnorm:      0.022906  CPU:    1.935
  ** Hessian calculated **
  Cycle:     21 Energy:       -88.738460  Gnorm:      0.014320  CPU:    1.939
  Cycle:     22 Energy:       -88.739061  Gnorm:      0.012442  CPU:    1.942
  Cycle:     23 Energy:       -88.739927  Gnorm:      0.019186  CPU:    1.945
  Cycle:     24 Energy:       -88.744562  Gnorm:      0.034072  CPU:    1.948
  Cycle:     25 Energy:       -88.751548  Gnorm:      0.075047  CPU:    1.950
  ** Hessian calculated **
  Cycle:     26 Energy:       -88.761217  Gnorm:      0.047302  CPU:    1.953
  Cycle:     27 Energy:       -88.768753  Gnorm:      0.046519  CPU:    1.954
  Cycle:     28 Energy:       -88.778913  Gnorm:      0.070084  CPU:    1.956
  Cycle:     29 Energy:       -88.868221  Gnorm:      0.161705  CPU:    1.959
  Cycle:     30 Energy:       -88.891150  Gnorm:      0.288544  CPU:    1.960
  ** Hessian calculated **
  Cycle:     31 Energy:       -89.026350  Gnorm:      0.249390  CPU:    1.963
  Cycle:     32 Energy:       -89.091324  Gnorm:      0.219047  CPU:    1.964
  Cycle:     33 Energy:       -89.159359  Gnorm:      0.092636  CPU:    1.966
  ** Hessian calculated **
  Cycle:     34 Energy:       -89.177645  Gnorm:      0.019011  CPU:    1.968
  Cycle:     35 Energy:       -89.178673  Gnorm:      0.003249  CPU:    1.969
  Cycle:     36 Energy:       -89.178717  Gnorm:      0.001040  CPU:    1.971


  **** Optimisation achieved ****


  Final energy =     -89.17872275 eV
  Final Gnorm  =       0.00034263

  Components of energy : 

--------------------------------------------------------------------------------
  Interatomic potentials     =           8.95121436 eV    
  Monopole - monopole (real) =         -21.11092057 eV    
  Monopole - monopole (recip)=         -77.01901654 eV    
  Monopole - monopole (total)=         -98.12993711 eV    
--------------------------------------------------------------------------------
  Total lattice energy       =         -89.17872275 eV    
--------------------------------------------------------------------------------
  Total lattice energy       =           -8604.3835 kJ/(mole unit cells)
--------------------------------------------------------------------------------

  Final fractional coordinates of atoms :

--------------------------------------------------------------------------------
   No.  Atomic        x           y          z          Radius
        Label       (Frac)      (Frac)     (Frac)       (Angs) 
--------------------------------------------------------------------------------
     1  Sc    c     0.666064    0.666064    0.666064    0.000000
     2  Sc    c     0.166071    0.135800    0.196167    0.000000
     3  Cl    c     0.166051    0.720517    0.611759    0.000000
     4  Cl    c     0.916070    0.617463    0.147761    0.000000
     5  Cl    c     0.416041    0.617488    0.147752    0.000000
     6  Cl    c     0.916049    0.184405    0.714468    0.000000
     7  Cl    c     0.666043    0.081365    0.250474    0.000000
     8  Cl    c     0.416067    0.184408    0.714461    0.000000
--------------------------------------------------------------------------------

  Final Cartesian lattice vectors (Angstroms) :

        5.411455   -2.082723   -1.393116
        1.504518    4.533328   -0.933354
        1.505718    0.872440    4.544527


  Final cell parameters and derivatives :

--------------------------------------------------------------------------------
       a            5.963418 Angstrom     dE/de1(xx)     0.004293 eV/strain
       b            4.866804 Angstrom     dE/de2(yy)     0.002553 eV/strain
       c            4.866319 Angstrom     dE/de3(zz)     0.002570 eV/strain
       alpha       85.207276 Degrees      dE/de4(yz)     0.001755 eV/strain
       beta        89.999961 Degrees      dE/de5(xz)     0.000430 eV/strain
       gamma       89.999534 Degrees      dE/de6(xy)    -0.000134 eV/strain
--------------------------------------------------------------------------------

  Primitive cell volume =           140.740327 Angs**3

  Density of cell =      3.570550 g/cm**3

  Non-primitive cell volume =           140.740327 Angs**3


  Final internal derivatives :

--------------------------------------------------------------------------------
   No.  Atomic          a             b             c           Radius
        Label          (eV)          (eV)          (eV)        (eV/Angs)
--------------------------------------------------------------------------------
      1 Sc    c       0.000000      0.000000      0.000000      0.000000
      2 Sc    c       0.002255     -0.004222      0.002522      0.000000
      3 Cl    c      -0.000661      0.001335      0.001470      0.000000
      4 Cl    c       0.001471      0.000178     -0.000255      0.000000
      5 Cl    c      -0.001300      0.002314      0.000122      0.000000
      6 Cl    c       0.000438     -0.000201     -0.001020      0.000000
      7 Cl    c      -0.001702     -0.000284     -0.000797      0.000000
      8 Cl    c      -0.000584     -0.001072     -0.001185      0.000000
--------------------------------------------------------------------------------
  Maximum abs         0.002255      0.004222      0.002522      0.000000
--------------------------------------------------------------------------------

  Comparison of initial and final structures : 

--------------------------------------------------------------------------------
  Parameter   Initial value   Final value   Difference    Units      Percent
--------------------------------------------------------------------------------
    Volume       235.208707    140.740327   -94.468380    Angs**3    -40.16
    a              7.453100      5.963418    -1.489682    Angstroms  -19.99
    b              7.453100      4.866804    -2.586296    Angstroms  -34.70
    c              7.453100      4.866319    -2.586781    Angstroms  -34.71
    alpha         51.648100     85.207276    33.559176    Degrees     64.98
    beta          51.648100     89.999961    38.351861    Degrees     74.26
    gamma         51.648100     89.999534    38.351434    Degrees     74.26
      1 x          0.666064      0.666064     0.000000    Fractional   0.00
      1 y          0.666064      0.666064     0.000000    Fractional   0.00
      1 z          0.666064      0.666064     0.000000    Fractional   0.00
      2 x          0.333936      0.166071     0.167865    Fractional  50.27
      2 y          0.333936      0.135800     0.198136    Fractional  59.33
      2 z          0.333936      0.196167     0.137769    Fractional  41.26
      3 x          0.294736      0.166051     0.128685    Fractional  43.66
      3 y          0.926265      0.720517     0.205748    Fractional  22.21
      3 z          0.556066      0.611759     0.055693    Fractional  10.02
      4 x          0.926265      0.916070     0.010195    Fractional   1.10
      4 y          0.556066      0.617463     0.061397    Fractional  11.04
      4 z          0.294736      0.147761     0.146975    Fractional  49.87
      5 x          0.443934      0.416041     0.027893    Fractional   6.28
      5 y          0.705264      0.617488     0.087776    Fractional  12.45
      5 z          0.073735      0.147752     0.074017    Fractional 100.38
      6 x          0.073735      0.916049     0.157686    Fractional 213.85
      6 y          0.443934      0.184405     0.259529    Fractional  58.46
      6 z          0.705264      0.714468     0.009204    Fractional   1.30
      7 x          0.705264      0.666043     0.039221    Fractional   5.56
      7 y          0.073735      0.081365     0.007630    Fractional  10.35
      7 z          0.443934      0.250474     0.193460    Fractional  43.58
      8 x          0.556066      0.416067     0.139999    Fractional  25.18
      8 y          0.294736      0.184408     0.110328    Fractional  37.43
      8 z          0.926265      0.714461     0.211804    Fractional  22.87
--------------------------------------------------------------------------------


  Time to end of optimisation =       1.9720 seconds


  Peak dynamic memory used =       1.81 MB 


  Timing analysis for GULP :

--------------------------------------------------------------------------------
  Task / Subroutine                                          Time (Seconds)
--------------------------------------------------------------------------------
  Calculation of reciprocal space energy and derivatives          0.0966
  Calculation of real space energy and derivatives                1.8357
  Sum of squares for fitting                                      0.0248
  Global summation overhead                                       0.0008
--------------------------------------------------------------------------------
  Total CPU time                                                  1.9720
--------------------------------------------------------------------------------


  Dump file written as ScCl3.grs


  Job Finished at 15:34.13  4th April      2022                               

