 running on  256 total cores
 distrk:  each k-point on  128 cores,    2 groups
 distr:  one band on   32 cores,    4 groups
 using from now: INCAR     
 vasp.5.4.4.18Apr17-6-g9f103f2a35 (build May 17 2021 09:35:58) complex           
 POSCAR found type information on POSCAR  Li Sc Cl
 POSCAR found :  3 types and      54 ions
 scaLAPACK will be used

 ----------------------------------------------------------------------------- 
|                                                                             |
|           W    W    AA    RRRRR   N    N  II  N    N   GGGG   !!!           |
|           W    W   A  A   R    R  NN   N  II  NN   N  G    G  !!!           |
|           W    W  A    A  R    R  N N  N  II  N N  N  G       !!!           |
|           W WW W  AAAAAA  RRRRR   N  N N  II  N  N N  G  GGG   !            |
|           WW  WW  A    A  R   R   N   NN  II  N   NN  G    G                |
|           W    W  A    A  R    R  N    N  II  N    N   GGGG   !!!           |
|                                                                             |
|      You have enabled k-point parallelism (KPAR>1).                         |
|      This developmental code was originally  written by Paul Kent at ORNL,  |
|      and carefully double checked in Vienna.                                |
|      GW as well as linear response parallelism added by Martijn Marsman     |
|      and Georg Kresse.                                                      |
|      Carefully verify results versus KPAR=1.                                |
|      Report problems to Paul Kent and Vienna.                               |
|                                                                             |
 ----------------------------------------------------------------------------- 


 ----------------------------------------------------------------------------- 
|                                                                             |
|           W    W    AA    RRRRR   N    N  II  N    N   GGGG   !!!           |
|           W    W   A  A   R    R  NN   N  II  NN   N  G    G  !!!           |
|           W    W  A    A  R    R  N N  N  II  N N  N  G       !!!           |
|           W WW W  AAAAAA  RRRRR   N  N N  II  N  N N  G  GGG   !            |
|           WW  WW  A    A  R   R   N   NN  II  N   NN  G    G                |
|           W    W  A    A  R    R  N    N  II  N    N   GGGG   !!!           |
|                                                                             |
|     The real-space-projection scheme for the treatment of the nonlocal      |
|     pseudopotentials has been switched on -- but on file POTCAR I have      |
|     not found any entries signalling me that you have ever performed a      |
|     real-space optimization of all nonlocal projectors! BE WARNED that      |
|     a calculation using the real-space-projection scheme together with      |
|     nonlocal projectors which were not real-space-optimized (according      |
|     to the plane-wave-cutoff used in this calculation) might give more      |
|     or less inaccurate results                                              |
|     I hope you know what you are doing                                      |
|                                                                             |
 ----------------------------------------------------------------------------- 


 ----------------------------------------------------------------------------- 
|                                                                             |
|  ADVICE TO THIS USER RUNNING 'VASP/VAMP'   (HEAR YOUR MASTER'S VOICE ...):  |
|                                                                             |
|      You enforced a specific xc-type in the INCAR file,                     |
|      a different type was found on the POTCAR file                          |
|          I HOPE YOU KNOW, WHAT YOU ARE  DOING                               |
|                                                                             |
 ----------------------------------------------------------------------------- 

 LDA part: xc-table for Pade appr. of Perdew
 POSCAR found type information on POSCAR  Li Sc Cl
 POSCAR found :  3 types and      54 ions
 POSCAR, INCAR and KPOINTS ok, starting setup
 FFT: planning ...
 WAVECAR not read
 entering main loop
       N       E                     dE             d eps       ncg     rms          rms(c)
DAV:   1     0.482178582038E+04    0.48218E+04   -0.15045E+05  3224   0.188E+03
DAV:   2     0.611476599476E+03   -0.42103E+04   -0.40895E+04  3512   0.512E+02
DAV:   3    -0.131325308829E+03   -0.74280E+03   -0.69928E+03  4376   0.207E+02
DAV:   4    -0.233066344025E+03   -0.10174E+03   -0.10134E+03  5352   0.852E+01
DAV:   5    -0.245285049174E+03   -0.12219E+02   -0.12188E+02  6304   0.318E+01    0.264E+01
DAV:   6    -0.233906347467E+03    0.11379E+02   -0.54597E+01  5664   0.270E+01    0.132E+01
DAV:   7    -0.233625807682E+03    0.28054E+00   -0.10864E+01  5848   0.101E+01    0.650E+00
DAV:   8    -0.233682377565E+03   -0.56570E-01   -0.22814E+00  5560   0.535E+00    0.259E+00
DAV:   9    -0.233669250303E+03    0.13127E-01   -0.42237E-01  5384   0.291E+00    0.157E+00
DAV:  10    -0.233658707521E+03    0.10543E-01   -0.11115E-01  5384   0.172E+00    0.735E-01
DAV:  11    -0.233656094463E+03    0.26131E-02   -0.24474E-02  5080   0.686E-01    0.240E-01
DAV:  12    -0.233656871890E+03   -0.77743E-03   -0.83284E-03  6272   0.312E-01    0.177E-01
DAV:  13    -0.233656868114E+03    0.37758E-05   -0.23406E-03  4808   0.241E-01    0.816E-02
DAV:  14    -0.233656921931E+03   -0.53817E-04   -0.80669E-04  5912   0.836E-02    0.408E-02
DAV:  15    -0.233656932111E+03   -0.10180E-04   -0.12002E-04  5912   0.332E-02    0.188E-02
DAV:  16    -0.233656934308E+03   -0.21967E-05   -0.42370E-05  3976   0.230E-02    0.121E-02
DAV:  17    -0.233656935190E+03   -0.88229E-06   -0.32361E-05  4928   0.131E-02    0.962E-03
DAV:  18    -0.233656935644E+03   -0.45324E-06   -0.46026E-06  3224   0.544E-03
   1 F= -.23365694E+03 E0= -.23365694E+03  d E =-.233657E+03
 curvature:   0.00 expect dE= 0.000E+00 dE for cont linesearch  0.000E+00
 trial: gam= 0.00000 g(F)=  0.158E+00 g(S)=  0.659E-02 ort = 0.000E+00 (trialstep = 0.100E+01)
 search vector abs. value=  0.165E+00
 bond charge predicted
       N       E                     dE             d eps       ncg     rms          rms(c)
DAV:   1    -0.233462153504E+03    0.19478E+00   -0.17137E+01  3576   0.206E+01    0.182E+00
DAV:   2    -0.233763451039E+03   -0.30130E+00   -0.36009E+00  4152   0.478E+00    0.100E+00
DAV:   3    -0.233761585930E+03    0.18651E-02   -0.13713E-01  5088   0.107E+00    0.704E-01
DAV:   4    -0.233757149434E+03    0.44365E-02   -0.13528E-02  5048   0.319E-01    0.340E-01
DAV:   5    -0.233755952198E+03    0.11972E-02   -0.51630E-03  4672   0.185E-01    0.139E-01
DAV:   6    -0.233755958397E+03   -0.61996E-05   -0.11861E-03  5424   0.857E-02    0.143E-01
DAV:   7    -0.233755938103E+03    0.20294E-04   -0.26496E-04  5528   0.392E-02    0.730E-02
DAV:   8    -0.233755914930E+03    0.23173E-04   -0.40560E-05  5336   0.204E-02    0.403E-02
DAV:   9    -0.233755910112E+03    0.48175E-05   -0.20441E-05  5136   0.124E-02    0.157E-02
DAV:  10    -0.233755910547E+03   -0.43493E-06   -0.23931E-06  2448   0.600E-03
   2 F= -.23375591E+03 E0= -.23375591E+03  d E =-.989749E-01
 trial-energy change:   -0.098975  1 .order   -0.098759   -0.164673   -0.032845
 step:   1.2491(harm=  1.2491)  dis= 0.05183  next Energy=  -233.759786 (dE=-0.103E+00)
 bond charge predicted
       N       E                     dE             d eps       ncg     rms          rms(c)
DAV:   1    -0.233741158592E+03    0.14752E-01   -0.10595E+00  3616   0.517E+00    0.477E-01
DAV:   2    -0.233760476890E+03   -0.19318E-01   -0.22963E-01  4208   0.120E+00    0.239E-01
DAV:   3    -0.233760226309E+03    0.25058E-03   -0.79445E-03  4912   0.270E-01    0.164E-01
DAV:   4    -0.233759958850E+03    0.26746E-03   -0.88962E-04  5064   0.786E-02    0.758E-02
DAV:   5    -0.233759891916E+03    0.66934E-04   -0.26989E-04  4728   0.429E-02    0.331E-02
DAV:   6    -0.233759887007E+03    0.49091E-05   -0.61600E-05  5632   0.200E-02    0.323E-02
DAV:   7    -0.233759883553E+03    0.34544E-05   -0.15360E-05  4552   0.972E-03    0.159E-02
DAV:   8    -0.233759880564E+03    0.29890E-05   -0.12018E-06  2248   0.484E-03    0.780E-03
DAV:   9    -0.233759879712E+03    0.85192E-06   -0.13881E-06  2008   0.493E-03
   3 F= -.23375988E+03 E0= -.23375988E+03  d E =-.102944E+00
 curvature:  -0.62 expect dE=-0.358E-01 dE for cont linesearch -0.605E-05
 trial: gam= 0.35563 g(F)=  0.549E-01 g(S)=  0.240E-02 ort =-0.126E-02 (trialstep = 0.105E+01)
 search vector abs. value=  0.772E-01
 bond charge predicted
       N       E                     dE             d eps       ncg     rms          rms(c)
DAV:   1    -0.233731006971E+03    0.28874E-01   -0.11057E+01  3392   0.114E+01    0.109E+00
DAV:   2    -0.233812170740E+03   -0.81164E-01   -0.92011E-01  4384   0.292E+00    0.530E-01
DAV:   3    -0.233811245132E+03    0.92561E-03   -0.31934E-02  5952   0.561E-01    0.395E-01
DAV:   4    -0.233810532598E+03    0.71253E-03   -0.33628E-03  5632   0.179E-01    0.180E-01
DAV:   5    -0.233810198343E+03    0.33426E-03   -0.15172E-03  4992   0.107E-01    0.624E-02
DAV:   6    -0.233810232543E+03   -0.34200E-04   -0.34478E-04  4712   0.414E-02    0.520E-02
DAV:   7    -0.233810236721E+03   -0.41778E-05   -0.61330E-05  5856   0.179E-02    0.243E-02
DAV:   8    -0.233810240047E+03   -0.33260E-05   -0.64619E-06  3672   0.861E-03    0.127E-02
DAV:   9    -0.233810241019E+03   -0.97242E-06   -0.15429E-06  1992   0.513E-03
   4 F= -.23381024E+03 E0= -.23381024E+03  d E =-.503613E-01
 trial-energy change:   -0.050361  1 .order   -0.050165   -0.059684   -0.040646
 step:   2.9581(harm=  3.2912)  dis= 0.04917  next Energy=  -233.848362 (dE=-0.885E-01)
 bond charge predicted
       N       E                     dE             d eps       ncg     rms          rms(c)
DAV:   1    -0.233585330299E+03    0.22491E+00   -0.36452E+01  3328   0.206E+01    0.198E+00
DAV:   2    -0.233855528872E+03   -0.27020E+00   -0.30651E+00  4416   0.539E+00    0.979E-01
DAV:   3    -0.233853597846E+03    0.19310E-02   -0.11546E-01  5896   0.105E+00    0.727E-01
DAV:   4    -0.233851240751E+03    0.23571E-02   -0.11231E-02  5600   0.339E-01    0.344E-01
DAV:   5    -0.233849994679E+03    0.12461E-02   -0.52337E-03  5048   0.204E-01    0.120E-01
DAV:   6    -0.233850100955E+03   -0.10628E-03   -0.12112E-03  4776   0.776E-02    0.929E-02
DAV:   7    -0.233850110009E+03   -0.90540E-05   -0.20366E-04  5992   0.337E-02    0.441E-02
DAV:   8    -0.233850116994E+03   -0.69848E-05   -0.25161E-05  4944   0.159E-02    0.232E-02
DAV:   9    -0.233850118794E+03   -0.17998E-05   -0.74581E-06  4264   0.850E-03    0.123E-02
DAV:  10    -0.233850119240E+03   -0.44639E-06   -0.27243E-06  2376   0.510E-03
   5 F= -.23385012E+03 E0= -.23385012E+03  d E =-.902395E-01
 curvature:  -2.19 expect dE=-0.144E+00 dE for cont linesearch -0.324E-03
 trial: gam= 0.99920 g(F)=  0.581E-01 g(S)=  0.787E-02 ort = 0.338E-02 (trialstep = 0.738E+00)
 search vector abs. value=  0.150E+00
 bond charge predicted
       N       E                     dE             d eps       ncg     rms          rms(c)
DAV:   1    -0.233815023307E+03    0.35095E-01   -0.10575E+01  3440   0.121E+01    0.108E+00
DAV:   2    -0.233892983374E+03   -0.77960E-01   -0.97212E-01  4112   0.276E+00    0.476E-01
DAV:   3    -0.233892579051E+03    0.40432E-03   -0.46881E-02  6008   0.648E-01    0.382E-01
DAV:   4    -0.233891290819E+03    0.12882E-02   -0.47440E-03  5232   0.228E-01    0.165E-01
DAV:   5    -0.233890994404E+03    0.29641E-03   -0.13821E-03  5184   0.950E-02    0.714E-02
DAV:   6    -0.233890987177E+03    0.72266E-05   -0.22752E-04  5928   0.400E-02    0.533E-02
DAV:   7    -0.233890979474E+03    0.77034E-05   -0.43455E-05  5064   0.185E-02    0.199E-02
DAV:   8    -0.233890974348E+03    0.51263E-05   -0.83248E-06  4320   0.908E-03    0.111E-02
DAV:   9    -0.233890973164E+03    0.11839E-05   -0.55355E-06  3176   0.718E-03    0.315E-03
DAV:  10    -0.233890973349E+03   -0.18523E-06   -0.14654E-06  2112   0.442E-03
   6 F= -.23389097E+03 E0= -.23389097E+03  d E =-.408541E-01
 trial-energy change:   -0.040854  1 .order   -0.040022   -0.051149   -0.028896
 step:   1.4091(harm=  1.6964)  dis= 0.03123  next Energy=  -233.904735 (dE=-0.546E-01)
 bond charge predicted
       N       E                     dE             d eps       ncg     rms          rms(c)
DAV:   1    -0.233844066432E+03    0.46907E-01   -0.87361E+00  3416   0.110E+01    0.984E-01
DAV:   2    -0.233908187084E+03   -0.64121E-01   -0.80049E-01  4176   0.254E+00    0.445E-01
DAV:   3    -0.233907432350E+03    0.75473E-03   -0.35824E-02  5944   0.564E-01    0.350E-01
DAV:   4    -0.233906439322E+03    0.99303E-03   -0.36151E-03  5288   0.202E-01    0.152E-01
DAV:   5    -0.233906172104E+03    0.26722E-03   -0.10749E-03  5192   0.848E-02    0.652E-02
DAV:   6    -0.233906162374E+03    0.97303E-05   -0.18854E-04  5896   0.357E-02    0.453E-02
DAV:   7    -0.233906155143E+03    0.72306E-05   -0.36594E-05  5368   0.170E-02    0.170E-02
DAV:   8    -0.233906151448E+03    0.36951E-05   -0.43547E-06  3224   0.773E-03    0.101E-02
DAV:   9    -0.233906150442E+03    0.10056E-05   -0.51400E-06  3048   0.722E-03    0.423E-03
DAV:  10    -0.233906150676E+03   -0.23337E-06   -0.10534E-06  2016   0.443E-03
   7 F= -.23390615E+03 E0= -.23390615E+03  d E =-.560314E-01
 curvature:  -1.67 expect dE=-0.425E-01 dE for cont linesearch -0.496E-03
 ZBRENT: extrapolating
 opt :   1.5469  next Energy=  -233.906611 (dE=-0.565E-01)
 bond charge predicted
       N       E                     dE             d eps       ncg     rms          rms(c)
DAV:   1    -0.233904067936E+03    0.20825E-02   -0.36985E-01  3416   0.227E+00    0.204E-01
DAV:   2    -0.233906771378E+03   -0.27034E-02   -0.33680E-02  4272   0.523E-01    0.918E-02
DAV:   3    -0.233906720003E+03    0.51375E-04   -0.13586E-03  5848   0.112E-01    0.706E-02
DAV:   4    -0.233906679523E+03    0.40480E-04   -0.15381E-04  5464   0.402E-02    0.306E-02
DAV:   5    -0.233906665555E+03    0.13968E-04   -0.41779E-05  5144   0.173E-02    0.136E-02
DAV:   6    -0.233906662347E+03    0.32082E-05   -0.62992E-06  3592   0.729E-03    0.850E-03
DAV:   7    -0.233906660395E+03    0.19513E-05   -0.14825E-06  1984   0.486E-03    0.355E-03
DAV:   8    -0.233906659986E+03    0.40949E-06   -0.74564E-07  1984   0.529E-03
   8 F= -.23390666E+03 E0= -.23390666E+03  d E =-.565407E-01
 curvature:  -1.55 expect dE=-0.443E-01 dE for cont linesearch -0.244E-05
 trial: gam= 0.42008 g(F)=  0.277E-01 g(S)=  0.892E-03 ort = 0.486E-03 (trialstep = 0.900E+00)
 search vector abs. value=  0.555E-01
 bond charge predicted
       N       E                     dE             d eps       ncg     rms          rms(c)
DAV:   1    -0.233893481366E+03    0.13179E-01   -0.57208E+00  3464   0.804E+00    0.918E-01
DAV:   2    -0.233929566791E+03   -0.36085E-01   -0.51121E-01  4064   0.201E+00    0.415E-01
DAV:   3    -0.233928003643E+03    0.15631E-02   -0.25007E-02  5848   0.464E-01    0.316E-01
DAV:   4    -0.233926994643E+03    0.10090E-02   -0.35710E-03  5088   0.198E-01    0.125E-01
DAV:   5    -0.233926862082E+03    0.13256E-03   -0.71025E-04  5296   0.678E-02    0.619E-02
DAV:   6    -0.233926843635E+03    0.18446E-04   -0.10528E-04  5928   0.358E-02    0.390E-02
DAV:   7    -0.233926832337E+03    0.11298E-04   -0.24886E-05  5544   0.152E-02    0.102E-02
DAV:   8    -0.233926829903E+03    0.24340E-05   -0.30872E-06  2744   0.680E-03    0.666E-03
DAV:   9    -0.233926829561E+03    0.34169E-06   -0.49818E-06  3136   0.635E-03
   9 F= -.23392683E+03 E0= -.23392683E+03  d E =-.201696E-01
 trial-energy change:   -0.020170  1 .order   -0.020092   -0.025942   -0.014243
 step:   1.9104(harm=  1.9953)  dis= 0.01977  next Energy=  -233.934937 (dE=-0.283E-01)
 bond charge predicted
       N       E                     dE             d eps       ncg     rms          rms(c)
DAV:   1    -0.233893611132E+03    0.33219E-01   -0.72100E+00  3456   0.901E+00    0.103E+00
DAV:   2    -0.233939027368E+03   -0.45416E-01   -0.64285E-01  4096   0.226E+00    0.477E-01
DAV:   3    -0.233936930895E+03    0.20965E-02   -0.30677E-02  5872   0.510E-01    0.362E-01
DAV:   4    -0.233935669857E+03    0.12610E-02   -0.43759E-03  5128   0.222E-01    0.142E-01
DAV:   5    -0.233935494177E+03    0.17568E-03   -0.88193E-04  5336   0.754E-02    0.698E-02
DAV:   6    -0.233935471863E+03    0.22314E-04   -0.13149E-04  5976   0.390E-02    0.425E-02
DAV:   7    -0.233935460048E+03    0.11815E-04   -0.30463E-05  5592   0.167E-02    0.114E-02
DAV:   8    -0.233935457648E+03    0.24005E-05   -0.43392E-06  3128   0.750E-03    0.762E-03
DAV:   9    -0.233935457238E+03    0.40970E-06   -0.58275E-06  3336   0.649E-03
  10 F= -.23393546E+03 E0= -.23393546E+03  d E =-.287973E-01
 curvature:  -1.91 expect dE=-0.431E-01 dE for cont linesearch -0.369E-04
 trial: gam= 0.74683 g(F)=  0.186E-01 g(S)=  0.399E-02 ort = 0.104E-02 (trialstep = 0.110E+01)
 search vector abs. value=  0.550E-01
 bond charge predicted
       N       E                     dE             d eps       ncg     rms          rms(c)
DAV:   1    -0.233904358212E+03    0.31099E-01   -0.87436E+00  3328   0.877E+00    0.101E+00
DAV:   2    -0.233956236039E+03   -0.51878E-01   -0.60285E-01  4304   0.253E+00    0.535E-01
DAV:   3    -0.233955289659E+03    0.94638E-03   -0.22679E-02  5848   0.486E-01    0.404E-01
DAV:   4    -0.233954615478E+03    0.67418E-03   -0.26561E-03  5648   0.163E-01    0.181E-01
DAV:   5    -0.233954329776E+03    0.28570E-03   -0.13262E-03  4888   0.951E-02    0.552E-02
DAV:   6    -0.233954353947E+03   -0.24171E-04   -0.23442E-04  4552   0.351E-02    0.455E-02
DAV:   7    -0.233954360257E+03   -0.63095E-05   -0.47013E-05  5712   0.164E-02    0.251E-02
DAV:   8    -0.233954363074E+03   -0.28172E-05   -0.10062E-05  4320   0.918E-03    0.142E-02
DAV:   9    -0.233954363832E+03   -0.75868E-06   -0.14301E-06  2104   0.478E-03
  11 F= -.23395436E+03 E0= -.23395436E+03  d E =-.189066E-01
 trial-energy change:   -0.018907  1 .order   -0.018811   -0.025717   -0.011904
 step:   1.9853(harm=  2.0516)  dis= 0.02048  next Energy=  -233.959185 (dE=-0.237E-01)
 bond charge predicted
       N       E                     dE             d eps       ncg     rms          rms(c)
DAV:   1    -0.233926500537E+03    0.27863E-01   -0.56187E+00  3328   0.703E+00    0.808E-01
DAV:   2    -0.233960216103E+03   -0.33716E-01   -0.39187E-01  4272   0.204E+00    0.432E-01
DAV:   3    -0.233959575660E+03    0.64044E-03   -0.14458E-02  5904   0.390E-01    0.329E-01
DAV:   4    -0.233959132782E+03    0.44288E-03   -0.17004E-03  5664   0.130E-01    0.150E-01
DAV:   5    -0.233958937407E+03    0.19538E-03   -0.90494E-04  4920   0.782E-02    0.451E-02
DAV:   6    -0.233958954463E+03   -0.17056E-04   -0.15926E-04  4480   0.286E-02    0.373E-02
DAV:   7    -0.233958959363E+03   -0.49000E-05   -0.32337E-05  5736   0.136E-02    0.216E-02
DAV:   8    -0.233958961648E+03   -0.22847E-05   -0.81235E-06  4000   0.799E-03    0.119E-02
DAV:   9    -0.233958962252E+03   -0.60473E-06   -0.11151E-06  2016   0.446E-03
  12 F= -.23395896E+03 E0= -.23395896E+03  d E =-.235050E-01
 curvature:  -2.41 expect dE=-0.525E-01 dE for cont linesearch -0.119E-04
 trial: gam= 0.97385 g(F)=  0.210E-01 g(S)=  0.849E-03 ort =-0.521E-03 (trialstep = 0.964E+00)
 search vector abs. value=  0.730E-01
 bond charge predicted
       N       E                     dE             d eps       ncg     rms          rms(c)
DAV:   1    -0.233916435682E+03    0.42526E-01   -0.89963E+00  3328   0.978E+00    0.894E-01
DAV:   2    -0.233973642128E+03   -0.57206E-01   -0.64493E-01  4256   0.250E+00    0.395E-01
DAV:   3    -0.233973779196E+03   -0.13707E-03   -0.26572E-02  5928   0.491E-01    0.306E-01
DAV:   4    -0.233973306556E+03    0.47264E-03   -0.22525E-03  5624   0.147E-01    0.146E-01
DAV:   5    -0.233973044294E+03    0.26226E-03   -0.12690E-03  4456   0.966E-02    0.461E-02
DAV:   6    -0.233973072144E+03   -0.27849E-04   -0.32689E-04  4704   0.420E-02    0.433E-02
DAV:   7    -0.233973068118E+03    0.40259E-05   -0.56393E-05  5488   0.161E-02    0.229E-02
DAV:   8    -0.233973066349E+03    0.17689E-05   -0.64927E-06  3664   0.859E-03    0.109E-02
DAV:   9    -0.233973065398E+03    0.95103E-06   -0.35993E-06  2744   0.587E-03
  13 F= -.23397307E+03 E0= -.23397307E+03  d E =-.141031E-01
 trial-energy change:   -0.014103  1 .order   -0.013526   -0.020541   -0.006511
 step:   1.2998(harm=  1.4116)  dis= 0.01870  next Energy=  -233.974223 (dE=-0.153E-01)
 bond charge predicted
       N       E                     dE             d eps       ncg     rms          rms(c)
DAV:   1    -0.233967471601E+03    0.55947E-02   -0.10922E+00  3336   0.342E+00    0.306E-01
DAV:   2    -0.233974380557E+03   -0.69090E-02   -0.77877E-02  4256   0.869E-01    0.135E-01
DAV:   3    -0.233974370648E+03    0.99085E-05   -0.29461E-03  5832   0.169E-01    0.105E-01
DAV:   4    -0.233974311803E+03    0.58845E-04   -0.26756E-04  5744   0.495E-02    0.486E-02
DAV:   5    -0.233974281382E+03    0.30421E-04   -0.14317E-04  4360   0.327E-02    0.155E-02
DAV:   6    -0.233974284425E+03   -0.30428E-05   -0.39944E-05  4376   0.149E-02    0.151E-02
DAV:   7    -0.233974283659E+03    0.76581E-06   -0.56169E-06  3496   0.591E-03
  14 F= -.23397428E+03 E0= -.23397428E+03  d E =-.153214E-01
 curvature:  -2.27 expect dE=-0.324E-01 dE for cont linesearch -0.389E-05
 trial: gam= 0.34541 g(F)=  0.130E-01 g(S)=  0.133E-02 ort = 0.354E-03 (trialstep = 0.103E+01)
 search vector abs. value=  0.232E-01
 bond charge predicted
       N       E                     dE             d eps       ncg     rms          rms(c)
DAV:   1    -0.233965703031E+03    0.85814E-02   -0.31526E+00  3528   0.638E+00    0.714E-01
DAV:   2    -0.233986784859E+03   -0.21082E-01   -0.29370E-01  4232   0.155E+00    0.354E-01
DAV:   3    -0.233985478756E+03    0.13061E-02   -0.11931E-02  5688   0.332E-01    0.255E-01
DAV:   4    -0.233984849522E+03    0.62923E-03   -0.21490E-03  5024   0.153E-01    0.914E-02
DAV:   5    -0.233984770914E+03    0.78608E-04   -0.38407E-04  5256   0.520E-02    0.473E-02
DAV:   6    -0.233984755728E+03    0.15186E-04   -0.65733E-05  5936   0.296E-02    0.303E-02
DAV:   7    -0.233984746192E+03    0.95365E-05   -0.15419E-05  5232   0.123E-02    0.831E-03
DAV:   8    -0.233984744244E+03    0.19481E-05   -0.20959E-06  2264   0.605E-03    0.572E-03
DAV:   9    -0.233984743823E+03    0.42126E-06   -0.16416E-06  2008   0.623E-03
  15 F= -.23398474E+03 E0= -.23398474E+03  d E =-.104602E-01
 trial-energy change:   -0.010460  1 .order   -0.010383   -0.014862   -0.005904
 step:   1.6590(harm=  1.7110)  dis= 0.01124  next Energy=  -233.986558 (dE=-0.123E-01)
 bond charge predicted
       N       E                     dE             d eps       ncg     rms          rms(c)
DAV:   1    -0.233979525661E+03    0.52186E-02   -0.11684E+00  3520   0.389E+00    0.434E-01
DAV:   2    -0.233987345629E+03   -0.78200E-02   -0.10873E-01  4248   0.949E-01    0.221E-01
DAV:   3    -0.233986839964E+03    0.50567E-03   -0.42499E-03  5688   0.199E-01    0.157E-01
DAV:   4    -0.233986603022E+03    0.23694E-03   -0.79064E-04  5040   0.912E-02    0.564E-02
DAV:   5    -0.233986568710E+03    0.34312E-04   -0.14250E-04  5256   0.316E-02    0.288E-02
DAV:   6    -0.233986559982E+03    0.87281E-05   -0.24750E-05  5928   0.178E-02    0.182E-02
DAV:   7    -0.233986554394E+03    0.55888E-05   -0.39569E-06  3200   0.737E-03    0.476E-03
DAV:   8    -0.233986553052E+03    0.13414E-05   -0.11847E-06  1984   0.544E-03    0.361E-03
DAV:   9    -0.233986553068E+03   -0.15971E-07   -0.81185E-07  1984   0.440E-03
  16 F= -.23398655E+03 E0= -.23398655E+03  d E =-.122694E-01
 curvature:  -1.37 expect dE=-0.134E-01 dE for cont linesearch -0.336E-06
 trial: gam= 0.64634 g(F)=  0.868E-02 g(S)=  0.105E-02 ort =-0.754E-04 (trialstep = 0.116E+01)
 search vector abs. value=  0.193E-01
 bond charge predicted
       N       E                     dE             d eps       ncg     rms          rms(c)
DAV:   1    -0.233971871020E+03    0.14682E-01   -0.35025E+00  3336   0.626E+00    0.546E-01
DAV:   2    -0.233994521752E+03   -0.22651E-01   -0.25484E-01  4312   0.157E+00    0.236E-01
DAV:   3    -0.233994386944E+03    0.13481E-03   -0.93325E-03  5776   0.301E-01    0.188E-01
DAV:   4    -0.233994247520E+03    0.13942E-03   -0.84863E-04  5840   0.918E-02    0.856E-02
DAV:   5    -0.233994155811E+03    0.91709E-04   -0.42615E-04  4928   0.560E-02    0.321E-02
DAV:   6    -0.233994167521E+03   -0.11710E-04   -0.10900E-04  4648   0.233E-02    0.239E-02
DAV:   7    -0.233994168956E+03   -0.14348E-05   -0.19026E-05  5056   0.996E-03    0.112E-02
DAV:   8    -0.233994170441E+03   -0.14855E-05   -0.22442E-06  2320   0.521E-03    0.558E-03
DAV:   9    -0.233994170865E+03   -0.42380E-06   -0.53663E-07  1984   0.432E-03
  17 F= -.23399417E+03 E0= -.23399417E+03  d E =-.761780E-02
 trial-energy change:   -0.007618  1 .order   -0.007534   -0.011203   -0.003865
 step:   1.7100(harm=  1.7661)  dis= 0.01280  next Energy=  -233.995104 (dE=-0.855E-02)
 bond charge predicted
       N       E                     dE             d eps       ncg     rms          rms(c)
DAV:   1    -0.233989978873E+03    0.41916E-02   -0.80033E-01  3336   0.299E+00    0.259E-01
DAV:   2    -0.233995191474E+03   -0.52126E-02   -0.58676E-02  4320   0.749E-01    0.113E-01
DAV:   3    -0.233995156196E+03    0.35278E-04   -0.21316E-03  5720   0.144E-01    0.897E-02
DAV:   4    -0.233995123655E+03    0.32541E-04   -0.19731E-04  5864   0.445E-02    0.413E-02
DAV:   5    -0.233995102859E+03    0.20797E-04   -0.99072E-05  4944   0.270E-02    0.155E-02
DAV:   6    -0.233995106062E+03   -0.32031E-05   -0.24998E-05  4224   0.111E-02    0.114E-02
DAV:   7    -0.233995106689E+03   -0.62684E-06   -0.30110E-06  2520   0.544E-03
  18 F= -.23399511E+03 E0= -.23399511E+03  d E =-.855362E-02
 curvature:  -1.75 expect dE=-0.141E-01 dE for cont linesearch -0.406E-08
 trial: gam= 0.69582 g(F)=  0.777E-02 g(S)=  0.296E-03 ort = 0.670E-05 (trialstep = 0.127E+01)
 search vector abs. value=  0.174E-01
 bond charge predicted
       N       E                     dE             d eps       ncg     rms          rms(c)
DAV:   1    -0.233976742399E+03    0.18364E-01   -0.36902E+00  3352   0.665E+00    0.607E-01
DAV:   2    -0.234002185063E+03   -0.25443E-01   -0.30106E-01  4176   0.161E+00    0.285E-01
DAV:   3    -0.234001857951E+03    0.32711E-03   -0.11430E-02  5816   0.328E-01    0.217E-01
DAV:   4    -0.234001519467E+03    0.33848E-03   -0.12581E-03  5648   0.108E-01    0.929E-02
DAV:   5    -0.234001424741E+03    0.94727E-04   -0.46557E-04  5056   0.595E-02    0.340E-02
DAV:   6    -0.234001435058E+03   -0.10317E-04   -0.89421E-05  5096   0.223E-02    0.319E-02
DAV:   7    -0.234001437778E+03   -0.27199E-05   -0.16064E-05  4928   0.980E-03    0.145E-02
DAV:   8    -0.234001439690E+03   -0.19126E-05   -0.17479E-06  2432   0.577E-03    0.752E-03
DAV:   9    -0.234001440024E+03   -0.33345E-06   -0.98812E-07  1984   0.557E-03
  19 F= -.23400144E+03 E0= -.23400144E+03  d E =-.633334E-02
 trial-energy change:   -0.006333  1 .order   -0.006258   -0.010229   -0.002287
 step:   1.6078(harm=  1.6324)  dis= 0.01505  next Energy=  -234.001749 (dE=-0.664E-02)
 bond charge predicted
       N       E                     dE             d eps       ncg     rms          rms(c)
DAV:   1    -0.233999986358E+03    0.14533E-02   -0.26621E-01  3360   0.179E+00    0.165E-01
DAV:   2    -0.234001828745E+03   -0.18424E-02   -0.21841E-02  4224   0.430E-01    0.762E-02
DAV:   3    -0.234001801089E+03    0.27656E-04   -0.80927E-04  5752   0.873E-02    0.578E-02
DAV:   4    -0.234001776932E+03    0.24157E-04   -0.93031E-05  5648   0.297E-02    0.245E-02
DAV:   5    -0.234001771965E+03    0.49674E-05   -0.33381E-05  4992   0.159E-02    0.904E-03
DAV:   6    -0.234001773623E+03   -0.16588E-05   -0.55723E-06  3296   0.612E-03    0.800E-03
DAV:   7    -0.234001774432E+03   -0.80893E-06   -0.10450E-06  1984   0.375E-03
  20 F= -.23400177E+03 E0= -.23400177E+03  d E =-.666774E-02
 curvature:  -1.76 expect dE=-0.106E-01 dE for cont linesearch -0.269E-05
 trial: gam= 0.63816 g(F)=  0.582E-02 g(S)=  0.205E-03 ort = 0.164E-03 (trialstep = 0.134E+01)
 search vector abs. value=  0.133E-01
 bond charge predicted
       N       E                     dE             d eps       ncg     rms          rms(c)
DAV:   1    -0.233987035893E+03    0.14738E-01   -0.32057E+00  3328   0.597E+00    0.532E-01
DAV:   2    -0.234008219113E+03   -0.21183E-01   -0.24004E-01  4248   0.146E+00    0.236E-01
DAV:   3    -0.234008178507E+03    0.40606E-04   -0.94719E-03  5864   0.295E-01    0.180E-01
DAV:   4    -0.234007996368E+03    0.18214E-03   -0.86851E-04  5712   0.865E-02    0.847E-02
DAV:   5    -0.234007897802E+03    0.98566E-04   -0.41888E-04  4720   0.577E-02    0.275E-02
DAV:   6    -0.234007906371E+03   -0.85694E-05   -0.11814E-04  4688   0.246E-02    0.283E-02
DAV:   7    -0.234007904013E+03    0.23587E-05   -0.19982E-05  5120   0.993E-03    0.154E-02
DAV:   8    -0.234007902874E+03    0.11390E-05   -0.18061E-06  2336   0.539E-03    0.858E-03
DAV:   9    -0.234007902279E+03    0.59498E-06   -0.84961E-07  1984   0.480E-03
  21 F= -.23400790E+03 E0= -.23400790E+03  d E =-.612785E-02
 trial-energy change:   -0.006128  1 .order   -0.005933   -0.008191   -0.003675
 step:   2.1072(harm=  2.4226)  dis= 0.02428  next Energy=  -234.009002 (dE=-0.723E-02)
 bond charge predicted
       N       E                     dE             d eps       ncg     rms          rms(c)
DAV:   1    -0.234002087656E+03    0.58152E-02   -0.10717E+00  3328   0.345E+00    0.304E-01
DAV:   2    -0.234009104176E+03   -0.70165E-02   -0.79472E-02  4280   0.848E-01    0.135E-01
DAV:   3    -0.234009074247E+03    0.29929E-04   -0.29767E-03  5832   0.167E-01    0.103E-01
DAV:   4    -0.234009012264E+03    0.61983E-04   -0.27723E-04  5712   0.491E-02    0.482E-02
DAV:   5    -0.234008979951E+03    0.32313E-04   -0.13590E-04  4768   0.328E-02    0.158E-02
DAV:   6    -0.234008982200E+03   -0.22487E-05   -0.37083E-05  4520   0.139E-02    0.162E-02
DAV:   7    -0.234008981112E+03    0.10875E-05   -0.53977E-06  3344   0.593E-03    0.865E-03
DAV:   8    -0.234008980507E+03    0.60513E-06   -0.99758E-07  2104   0.444E-03
  22 F= -.23400898E+03 E0= -.23400898E+03  d E =-.720607E-02
 curvature:  -2.41 expect dE=-0.201E-01 dE for cont linesearch -0.189E-05
 trial: gam= 1.30181 g(F)=  0.817E-02 g(S)=  0.152E-03 ort =-0.102E-03 (trialstep = 0.648E+00)
 search vector abs. value=  0.307E-01
 bond charge predicted
       N       E                     dE             d eps       ncg     rms          rms(c)
DAV:   1    -0.234004928252E+03    0.40529E-02   -0.18519E+00  3392   0.361E+00    0.387E-01
DAV:   2    -0.234012974817E+03   -0.80466E-02   -0.94781E-02  4312   0.931E-01    0.186E-01
DAV:   3    -0.234012848805E+03    0.12601E-03   -0.42964E-03  5808   0.186E-01    0.139E-01
DAV:   4    -0.234012727558E+03    0.12125E-03   -0.52268E-04  5568   0.707E-02    0.585E-02
DAV:   5    -0.234012686564E+03    0.40994E-04   -0.17926E-04  4864   0.348E-02    0.194E-02
DAV:   6    -0.234012685007E+03    0.15568E-05   -0.30572E-05  5208   0.128E-02    0.170E-02
DAV:   7    -0.234012683474E+03    0.15328E-05   -0.35852E-06  2896   0.590E-03    0.937E-03
DAV:   8    -0.234012682016E+03    0.14577E-05   -0.11290E-06  2016   0.505E-03    0.389E-03
DAV:   9    -0.234012681676E+03    0.34037E-06   -0.78568E-07  1984   0.427E-03
  23 F= -.23401268E+03 E0= -.23401268E+03  d E =-.370117E-02
 trial-energy change:   -0.003701  1 .order   -0.003479   -0.005310   -0.001648
 step:   0.8458(harm=  0.9398)  dis= 0.01849  next Energy=  -234.012939 (dE=-0.396E-02)
 bond charge predicted
       N       E                     dE             d eps       ncg     rms          rms(c)
DAV:   1    -0.234012292410E+03    0.38961E-03   -0.17279E-01  3392   0.110E+00    0.117E-01
DAV:   2    -0.234013039185E+03   -0.74677E-03   -0.87639E-03  4296   0.284E-01    0.569E-02
DAV:   3    -0.234013024776E+03    0.14409E-04   -0.37179E-04  5704   0.567E-02    0.424E-02
DAV:   4    -0.234013012610E+03    0.12166E-04   -0.48503E-05  5576   0.213E-02    0.173E-02
DAV:   5    -0.234013007933E+03    0.46773E-05   -0.15323E-05  4704   0.102E-02    0.596E-03
DAV:   6    -0.234013006892E+03    0.10407E-05   -0.17857E-06  2200   0.406E-03    0.392E-03
DAV:   7    -0.234013006230E+03    0.66241E-06   -0.52714E-07  1984   0.424E-03
  24 F= -.23401301E+03 E0= -.23401301E+03  d E =-.402572E-02
 curvature:  -1.58 expect dE=-0.717E-02 dE for cont linesearch -0.206E-04
 trial: gam=-0.03040 g(F)=  0.452E-02 g(S)=  0.323E-04 ort = 0.633E-03 (trialstep = 0.688E+00)
 search vector abs. value=  0.454E-02
 bond charge predicted
       N       E                     dE             d eps       ncg     rms          rms(c)
DAV:   1    -0.234012590682E+03    0.41621E-03   -0.28310E-01  3488   0.227E+00    0.148E-01
DAV:   2    -0.234015446513E+03   -0.28558E-02   -0.31930E-02  4200   0.468E-01    0.656E-02
DAV:   3    -0.234015474718E+03   -0.28206E-04   -0.11297E-03  5456   0.977E-02    0.489E-02
DAV:   4    -0.234015458958E+03    0.15761E-04   -0.87459E-05  5784   0.257E-02    0.268E-02
DAV:   5    -0.234015450615E+03    0.83425E-05   -0.34301E-05  4216   0.184E-02    0.983E-03
DAV:   6    -0.234015451660E+03   -0.10444E-05   -0.15581E-05  4376   0.950E-03    0.110E-02
DAV:   7    -0.234015451135E+03    0.52482E-06   -0.31532E-06  2688   0.509E-03
  25 F= -.23401545E+03 E0= -.23401545E+03  d E =-.244491E-02
 trial-energy change:   -0.002445  1 .order   -0.002435   -0.003116   -0.001754
 step:   1.4983(harm=  1.5737)  dis= 0.00764  next Energy=  -234.016501 (dE=-0.349E-02)
 bond charge predicted
       N       E                     dE             d eps       ncg     rms          rms(c)
DAV:   1    -0.234012523393E+03    0.29283E-02   -0.39364E-01  3496   0.268E+00    0.176E-01
DAV:   2    -0.234016507233E+03   -0.39838E-02   -0.44597E-02  4216   0.552E-01    0.773E-02
DAV:   3    -0.234016539445E+03   -0.32212E-04   -0.15135E-03  5512   0.114E-01    0.572E-02
DAV:   4    -0.234016518198E+03    0.21246E-04   -0.11984E-04  5816   0.302E-02    0.316E-02
DAV:   5    -0.234016506362E+03    0.11836E-04   -0.47818E-05  4248   0.220E-02    0.115E-02
DAV:   6    -0.234016507821E+03   -0.14590E-05   -0.22399E-05  4536   0.114E-02    0.129E-02
DAV:   7    -0.234016507080E+03    0.74177E-06   -0.48525E-06  2968   0.573E-03
  26 F= -.23401651E+03 E0= -.23401651E+03  d E =-.350085E-02
 curvature:  -0.78 expect dE=-0.180E-02 dE for cont linesearch -0.103E-06
 trial: gam= 0.49941 g(F)=  0.226E-02 g(S)=  0.496E-04 ort = 0.245E-04 (trialstep = 0.850E+00)
 search vector abs. value=  0.346E-02
 bond charge predicted
       N       E                     dE             d eps       ncg     rms          rms(c)
DAV:   1    -0.234014899957E+03    0.16079E-02   -0.31717E-01  3512   0.217E+00    0.186E-01
DAV:   2    -0.234017735148E+03   -0.28352E-02   -0.32249E-02  4264   0.503E-01    0.779E-02
DAV:   3    -0.234017727657E+03    0.74913E-05   -0.11151E-03  5704   0.102E-01    0.607E-02
DAV:   4    -0.234017699322E+03    0.28335E-04   -0.11268E-04  5464   0.291E-02    0.287E-02
DAV:   5    -0.234017688350E+03    0.10972E-04   -0.46069E-05  4280   0.200E-02    0.100E-02
DAV:   6    -0.234017689393E+03   -0.10426E-05   -0.16272E-05  4560   0.981E-03    0.125E-02
DAV:   7    -0.234017688842E+03    0.55134E-06   -0.19490E-06  2200   0.418E-03
  27 F= -.23401769E+03 E0= -.23401769E+03  d E =-.118176E-02
 trial-energy change:   -0.001182  1 .order   -0.001178   -0.001970   -0.000386
 step:   1.0527(harm=  1.0566)  dis= 0.00309  next Energy=  -234.017735 (dE=-0.123E-02)
 bond charge predicted
       N       E                     dE             d eps       ncg     rms          rms(c)
DAV:   1    -0.234017576668E+03    0.11273E-03   -0.18173E-02  3504   0.517E-01    0.450E-02
DAV:   2    -0.234017742057E+03   -0.16539E-03   -0.18767E-03  4328   0.122E-01    0.193E-02
DAV:   3    -0.234017740476E+03    0.15811E-05   -0.56983E-05  5680   0.237E-02    0.148E-02
DAV:   4    -0.234017738689E+03    0.17868E-05   -0.57395E-06  3736   0.714E-03    0.725E-03
DAV:   5    -0.234017738033E+03    0.65619E-06   -0.49075E-06  3096   0.633E-03
  28 F= -.23401774E+03 E0= -.23401774E+03  d E =-.123095E-02
 curvature:  -0.79 expect dE=-0.609E-03 dE for cont linesearch -0.482E-07
 trial: gam= 0.31918 g(F)=  0.743E-03 g(S)=  0.296E-04 ort = 0.145E-04 (trialstep = 0.890E+00)
 search vector abs. value=  0.113E-02
 bond charge predicted
       N       E                     dE             d eps       ncg     rms          rms(c)
DAV:   1    -0.234017431101E+03    0.30759E-03   -0.10504E-01  3344   0.115E+00    0.126E-01
DAV:   2    -0.234018365945E+03   -0.93484E-03   -0.11293E-02  4256   0.310E-01    0.581E-02
DAV:   3    -0.234018341341E+03    0.24604E-04   -0.35336E-04  5640   0.597E-02    0.446E-02
DAV:   4    -0.234018322552E+03    0.18790E-04   -0.56759E-05  5248   0.216E-02    0.192E-02
DAV:   5    -0.234018317258E+03    0.52934E-05   -0.17517E-05  4656   0.106E-02    0.717E-03
DAV:   6    -0.234018315797E+03    0.14610E-05   -0.16473E-06  2104   0.455E-03    0.426E-03
DAV:   7    -0.234018315002E+03    0.79535E-06   -0.70627E-07  1984   0.486E-03
  29 F= -.23401832E+03 E0= -.23401832E+03  d E =-.576969E-03
 trial-energy change:   -0.000577  1 .order   -0.000566   -0.000692   -0.000441
 step:   1.9072(harm=  2.4580)  dis= 0.00450  next Energy=  -234.018583 (dE=-0.845E-03)
 bond charge predicted
       N       E                     dE             d eps       ncg     rms          rms(c)
DAV:   1    -0.234017510339E+03    0.80546E-03   -0.13694E-01  3344   0.131E+00    0.144E-01
DAV:   2    -0.234018728565E+03   -0.12182E-02   -0.14698E-02  4264   0.353E-01    0.664E-02
DAV:   3    -0.234018696404E+03    0.32161E-04   -0.46011E-04  5624   0.681E-02    0.510E-02
DAV:   4    -0.234018671828E+03    0.24576E-04   -0.75445E-05  5264   0.248E-02    0.218E-02
DAV:   5    -0.234018665494E+03    0.63343E-05   -0.22629E-05  4728   0.120E-02    0.816E-03
DAV:   6    -0.234018663828E+03    0.16664E-05   -0.21488E-06  2328   0.512E-03    0.482E-03
DAV:   7    -0.234018662917E+03    0.91073E-06   -0.87490E-07  1984   0.511E-03
  30 F= -.23401866E+03 E0= -.23401866E+03  d E =-.924884E-03
 curvature:  -1.57 expect dE=-0.123E-02 dE for cont linesearch -0.384E-04
 ZBRENT: increasing intervall
 opt :   3.9410  next Energy=  -234.018332 (dE=-0.594E-03)
 bond charge predicted
       N       E                     dE             d eps       ncg     rms          rms(c)
DAV:   1    -0.234013724549E+03    0.49393E-02   -0.54770E-01  3344   0.262E+00    0.288E-01
DAV:   2    -0.234018588019E+03   -0.48635E-02   -0.58797E-02  4272   0.705E-01    0.133E-01
DAV:   3    -0.234018456262E+03    0.13176E-03   -0.18324E-03  5704   0.136E-01    0.103E-01
DAV:   4    -0.234018359771E+03    0.96491E-04   -0.29818E-04  5216   0.495E-02    0.440E-02
DAV:   5    -0.234018338878E+03    0.20893E-04   -0.91638E-05  4968   0.241E-02    0.162E-02
DAV:   6    -0.234018335914E+03    0.29637E-05   -0.13910E-05  5368   0.949E-03    0.122E-02
DAV:   7    -0.234018334501E+03    0.14133E-05   -0.14561E-06  2120   0.444E-03    0.631E-03
DAV:   8    -0.234018333204E+03    0.12971E-05   -0.64816E-07  1992   0.437E-03    0.218E-03
DAV:   9    -0.234018332986E+03    0.21800E-06   -0.44819E-07  1960   0.332E-03
  31 F= -.23401833E+03 E0= -.23401833E+03  d E =-.594953E-03
 curvature:  13.58 expect dE= 0.474E-01 dE for cont linesearch  0.332E-02
 ZBRENT: bracketing found
 ZBRENT: interpolating
 opt :   2.3954  next Energy=  -234.018704 (dE=-0.965E-03)
 bond charge predicted
       N       E                     dE             d eps       ncg     rms          rms(c)
DAV:   1    -0.234016057145E+03    0.22761E-02   -0.31645E-01  3344   0.199E+00    0.219E-01
DAV:   2    -0.234018847026E+03   -0.27899E-02   -0.33908E-02  4248   0.536E-01    0.102E-01
DAV:   3    -0.234018766358E+03    0.80669E-04   -0.10341E-03  5584   0.103E-01    0.778E-02
DAV:   4    -0.234018713230E+03    0.53128E-04   -0.17465E-04  5136   0.376E-02    0.334E-02
DAV:   5    -0.234018708146E+03    0.50836E-05   -0.51473E-05  4936   0.180E-02    0.122E-02
DAV:   6    -0.234018710576E+03   -0.24296E-05   -0.65231E-06  3832   0.710E-03    0.868E-03
DAV:   7    -0.234018711706E+03   -0.11303E-05   -0.12337E-06  1984   0.420E-03    0.421E-03
DAV:   8    -0.234018712529E+03   -0.82352E-06   -0.57333E-07  1984   0.436E-03
  32 F= -.23401871E+03 E0= -.23401871E+03  d E =-.974497E-03
 curvature:  -0.17 expect dE=-0.197E-03 dE for cont linesearch -0.525E-07
 trial: gam= 1.49844 g(F)=  0.115E-02 g(S)=  0.358E-04 ort = 0.189E-04 (trialstep = 0.357E+00)
 search vector abs. value=  0.379E-02
 bond charge predicted
       N       E                     dE             d eps       ncg     rms          rms(c)
DAV:   1    -0.234018682359E+03    0.29347E-04   -0.58095E-02  3328   0.776E-01    0.853E-02
DAV:   2    -0.234019119636E+03   -0.43728E-03   -0.49323E-03  4224   0.216E-01    0.361E-02
DAV:   3    -0.234019115590E+03    0.40460E-05   -0.15670E-04  5704   0.396E-02    0.286E-02
DAV:   4    -0.234019110713E+03    0.48770E-05   -0.17819E-05  5056   0.117E-02    0.135E-02
DAV:   5    -0.234019108818E+03    0.18948E-05   -0.87376E-06  3824   0.774E-03    0.401E-03
DAV:   6    -0.234019108797E+03    0.20642E-07   -0.15327E-06  2136   0.388E-03
  33 F= -.23401911E+03 E0= -.23401911E+03  d E =-.396268E-03
 ZBRENT: can't locate minimum, use default step
 trial-energy change:   -0.000396  1 .order   -0.000398   -0.000433   -0.000362
 step:   1.4263(harm=  2.1812)  dis= 0.00757  next Energy=  -234.020037 (dE=-0.132E-02)
 bond charge predicted
       N       E                     dE             d eps       ncg     rms          rms(c)
DAV:   1    -0.234016030344E+03    0.30785E-02   -0.52325E-01  3328   0.233E+00    0.257E-01
DAV:   2    -0.234019974488E+03   -0.39441E-02   -0.44528E-02  4264   0.649E-01    0.108E-01
DAV:   3    -0.234019939139E+03    0.35350E-04   -0.14456E-03  5760   0.119E-01    0.853E-02
DAV:   4    -0.234019896705E+03    0.42433E-04   -0.16300E-04  5480   0.355E-02    0.401E-02
DAV:   5    -0.234019880933E+03    0.15772E-04   -0.82083E-05  4848   0.231E-02    0.122E-02
DAV:   6    -0.234019881990E+03   -0.10569E-05   -0.17782E-05  4336   0.971E-03    0.109E-02
DAV:   7    -0.234019881536E+03    0.45328E-06   -0.17234E-06  2216   0.421E-03
  34 F= -.23401988E+03 E0= -.23401988E+03  d E =-.116901E-02
 curvature:  -2.82 expect dE=-0.221E-02 dE for cont linesearch -0.114E-03
 ZBRENT: increasing intervall
 opt :   3.5657  next Energy=  -234.019386 (dE=-0.674E-03)
 bond charge predicted
       N       E                     dE             d eps       ncg     rms          rms(c)
DAV:   1    -0.234003849405E+03    0.16033E-01   -0.20937E+00  3328   0.465E+00    0.513E-01
DAV:   2    -0.234019563850E+03   -0.15714E-01   -0.17726E-01  4248   0.130E+00    0.218E-01
DAV:   3    -0.234019441710E+03    0.12214E-03   -0.59057E-03  5856   0.240E-01    0.173E-01
DAV:   4    -0.234019271266E+03    0.17044E-03   -0.64817E-04  5472   0.717E-02    0.821E-02
DAV:   5    -0.234019206853E+03    0.64413E-04   -0.33342E-04  4808   0.468E-02    0.247E-02
DAV:   6    -0.234019212486E+03   -0.56332E-05   -0.76059E-05  4792   0.200E-02    0.216E-02
DAV:   7    -0.234019211670E+03    0.81668E-06   -0.11961E-05  4608   0.767E-03    0.111E-02
DAV:   8    -0.234019210801E+03    0.86854E-06   -0.10467E-06  2264   0.451E-03
  35 F= -.23401921E+03 E0= -.23401921E+03  d E =-.498271E-03
 curvature:  12.20 expect dE= 0.452E-01 dE for cont linesearch  0.428E-02
 ZBRENT: bracketing found
 ZBRENT: interpolating
 opt :   1.9693  next Energy=  -234.019988 (dE=-0.128E-02)
 bond charge predicted
       N       E                     dE             d eps       ncg     rms          rms(c)
DAV:   1    -0.234011525544E+03    0.76861E-02   -0.11659E+00  3328   0.347E+00    0.375E-01
DAV:   2    -0.234020208082E+03   -0.86825E-02   -0.97966E-02  4240   0.972E-01    0.164E-01
DAV:   3    -0.234020132636E+03    0.75445E-04   -0.31749E-03  5816   0.178E-01    0.130E-01
DAV:   4    -0.234020036514E+03    0.96122E-04   -0.36487E-04  5480   0.531E-02    0.615E-02
DAV:   5    -0.234020004495E+03    0.32019E-04   -0.17987E-04  4824   0.343E-02    0.184E-02
DAV:   6    -0.234020008498E+03   -0.40031E-05   -0.38764E-05  4568   0.144E-02    0.161E-02
DAV:   7    -0.234020008609E+03   -0.11032E-06   -0.52091E-06  3432   0.574E-03
  36 F= -.23402001E+03 E0= -.23402001E+03  d E =-.129608E-02
 curvature:  -0.30 expect dE=-0.347E-03 dE for cont linesearch -0.477E-06
 trial: gam= 0.79265 g(F)=  0.113E-02 g(S)=  0.163E-04 ort = 0.771E-04 (trialstep = 0.679E+00)
 search vector abs. value=  0.364E-02
 bond charge predicted
       N       E                     dE             d eps       ncg     rms          rms(c)
DAV:   1    -0.234019546742E+03    0.46176E-03   -0.22531E-01  3328   0.130E+00    0.136E-01
DAV:   2    -0.234020773332E+03   -0.12266E-02   -0.13811E-02  4352   0.358E-01    0.661E-02
DAV:   3    -0.234020768447E+03    0.48848E-05   -0.45141E-04  5680   0.655E-02    0.508E-02
DAV:   4    -0.234020756970E+03    0.11477E-04   -0.51934E-05  5432   0.196E-02    0.246E-02
DAV:   5    -0.234020754749E+03    0.22215E-05   -0.23461E-05  4608   0.120E-02    0.663E-03
DAV:   6    -0.234020755443E+03   -0.69424E-06   -0.30402E-06  2640   0.484E-03
  37 F= -.23402076E+03 E0= -.23402076E+03  d E =-.746834E-03
 trial-energy change:   -0.000747  1 .order   -0.000738   -0.000817   -0.000659
 step:   2.0674(harm=  3.5124)  dis= 0.01238  next Energy=  -234.021506 (dE=-0.150E-02)
 bond charge predicted
       N       E                     dE             d eps       ncg     rms          rms(c)
DAV:   1    -0.234016286913E+03    0.44678E-02   -0.94204E-01  3328   0.265E+00    0.287E-01
DAV:   2    -0.234021461980E+03   -0.51751E-02   -0.58379E-02  4360   0.735E-01    0.132E-01
DAV:   3    -0.234021452242E+03    0.97381E-05   -0.20203E-03  5752   0.135E-01    0.101E-01
DAV:   4    -0.234021406360E+03    0.45882E-04   -0.21601E-04  5520   0.411E-02    0.487E-02
DAV:   5    -0.234021394868E+03    0.11493E-04   -0.10414E-04  4848   0.254E-02    0.130E-02
DAV:   6    -0.234021397374E+03   -0.25065E-05   -0.17070E-05  4488   0.980E-03    0.123E-02
DAV:   7    -0.234021397685E+03   -0.31132E-06   -0.18253E-06  2248   0.413E-03
  38 F= -.23402140E+03 E0= -.23402140E+03  d E =-.138908E-02
 curvature:  -3.94 expect dE=-0.347E-02 dE for cont linesearch -0.663E-04
 ZBRENT: interpolating
 opt :   1.7851  next Energy=  -234.021433 (dE=-0.142E-02)
 bond charge predicted
       N       E                     dE             d eps       ncg     rms          rms(c)
DAV:   1    -0.234021213686E+03    0.18369E-03   -0.38877E-02  3328   0.539E-01    0.561E-02
DAV:   2    -0.234021424801E+03   -0.21112E-03   -0.23695E-03  4360   0.149E-01    0.277E-02
DAV:   3    -0.234021424965E+03   -0.16321E-06   -0.86221E-05  5672   0.277E-02    0.212E-02
DAV:   4    -0.234021422683E+03    0.22816E-05   -0.80765E-06  4160   0.803E-03    0.106E-02
DAV:   5    -0.234021421719E+03    0.96412E-06   -0.45122E-06  3120   0.555E-03
  39 F= -.23402142E+03 E0= -.23402142E+03  d E =-.141311E-02
 curvature:  -2.08 expect dE=-0.166E-02 dE for cont linesearch -0.470E-05
 trial: gam= 0.23394 g(F)=  0.786E-03 g(S)=  0.129E-04 ort = 0.908E-04 (trialstep = 0.900E+00)
 search vector abs. value=  0.104E-02
 bond charge predicted
       N       E                     dE             d eps       ncg     rms          rms(c)
DAV:   1    -0.234021113209E+03    0.30947E-03   -0.10682E-01  3352   0.116E+00    0.102E-01
DAV:   2    -0.234021985747E+03   -0.87254E-03   -0.98857E-03  4312   0.289E-01    0.505E-02
DAV:   3    -0.234021980263E+03    0.54836E-05   -0.31900E-04  5728   0.558E-02    0.394E-02
DAV:   4    -0.234021970739E+03    0.95244E-05   -0.34250E-05  5592   0.170E-02    0.192E-02
DAV:   5    -0.234021966027E+03    0.47124E-05   -0.16184E-05  4424   0.105E-02    0.624E-03
DAV:   6    -0.234021965623E+03    0.40363E-06   -0.29220E-06  2400   0.514E-03
  40 F= -.23402197E+03 E0= -.23402197E+03  d E =-.543904E-03
 trial-energy change:   -0.000544  1 .order   -0.000540   -0.000738   -0.000341
 step:   1.5977(harm=  1.6738)  dis= 0.00423  next Energy=  -234.022100 (dE=-0.678E-03)
 bond charge predicted
       N       E                     dE             d eps       ncg     rms          rms(c)
DAV:   1    -0.234021599052E+03    0.36697E-03   -0.64127E-02  3344   0.901E-01    0.812E-02
DAV:   2    -0.234022122732E+03   -0.52368E-03   -0.59552E-03  4312   0.224E-01    0.381E-02
DAV:   3    -0.234022119813E+03    0.29197E-05   -0.19567E-04  5752   0.435E-02    0.294E-02
DAV:   4    -0.234022114320E+03    0.54931E-05   -0.20833E-05  5456   0.134E-02    0.141E-02
DAV:   5    -0.234022111394E+03    0.29259E-05   -0.89562E-06  3880   0.827E-03    0.459E-03
DAV:   6    -0.234022111047E+03    0.34650E-06   -0.19449E-06  2200   0.433E-03
  41 F= -.23402211E+03 E0= -.23402211E+03  d E =-.689328E-03
 curvature:  -1.05 expect dE=-0.537E-03 dE for cont linesearch -0.162E-05
 trial: gam= 0.51486 g(F)=  0.496E-03 g(S)=  0.146E-04 ort = 0.400E-04 (trialstep = 0.104E+01)
 search vector abs. value=  0.827E-03
 bond charge predicted
       N       E                     dE             d eps       ncg     rms          rms(c)
DAV:   1    -0.234021419447E+03    0.69195E-03   -0.93370E-02  3424   0.119E+00    0.128E-01
DAV:   2    -0.234022547940E+03   -0.11285E-02   -0.12929E-02  4264   0.331E-01    0.542E-02
DAV:   3    -0.234022533326E+03    0.14614E-04   -0.35617E-04  5712   0.608E-02    0.426E-02
DAV:   4    -0.234022519532E+03    0.13794E-04   -0.46174E-05  5360   0.177E-02    0.209E-02
DAV:   5    -0.234022517092E+03    0.24401E-05   -0.17638E-05  4600   0.106E-02    0.707E-03
DAV:   6    -0.234022517925E+03   -0.83268E-06   -0.23265E-06  2256   0.472E-03
  42 F= -.23402252E+03 E0= -.23402252E+03  d E =-.406877E-03
 trial-energy change:   -0.000407  1 .order   -0.000414   -0.000552   -0.000276
 step:   2.8126(harm=  2.0780)  dis= 0.00388  next Energy=  -234.022718 (dE=-0.607E-03)
 bond charge predicted
       N       E                     dE             d eps       ncg     rms          rms(c)
DAV:   1    -0.234019392118E+03    0.31250E-02   -0.27138E-01  3432   0.203E+00    0.217E-01
DAV:   2    -0.234022683333E+03   -0.32912E-02   -0.37641E-02  4264   0.562E-01    0.935E-02
DAV:   3    -0.234022641224E+03    0.42109E-04   -0.10302E-03  5680   0.103E-01    0.732E-02
DAV:   4    -0.234022600064E+03    0.41160E-04   -0.13588E-04  5352   0.304E-02    0.362E-02
DAV:   5    -0.234022591785E+03    0.82792E-05   -0.53581E-05  4952   0.184E-02    0.121E-02
DAV:   6    -0.234022593619E+03   -0.18341E-05   -0.91173E-06  4016   0.743E-03    0.799E-03
DAV:   7    -0.234022594122E+03   -0.50241E-06   -0.11526E-06  1984   0.394E-03
  43 F= -.23402259E+03 E0= -.23402259E+03  d E =-.483074E-03
 curvature:  -0.81 expect dE=-0.920E-03 dE for cont linesearch -0.256E-04
 ZBRENT: interpolating
 opt :   2.1405  next Energy=  -234.022649 (dE=-0.538E-03)
 bond charge predicted
       N       E                     dE             d eps       ncg     rms          rms(c)
DAV:   1    -0.234022196173E+03    0.39745E-03   -0.38999E-02  3424   0.769E-01    0.803E-02
DAV:   2    -0.234022672182E+03   -0.47601E-03   -0.54034E-03  4264   0.213E-01    0.368E-02
DAV:   3    -0.234022666543E+03    0.56393E-05   -0.14724E-04  5672   0.391E-02    0.288E-02
DAV:   4    -0.234022660152E+03    0.63909E-05   -0.19137E-05  5016   0.114E-02    0.146E-02
DAV:   5    -0.234022657810E+03    0.23421E-05   -0.75029E-06  3472   0.714E-03    0.496E-03
DAV:   6    -0.234022657363E+03    0.44647E-06   -0.13060E-06  1992   0.399E-03
  44 F= -.23402266E+03 E0= -.23402266E+03  d E =-.546316E-03
 curvature:  -1.72 expect dE=-0.108E-02 dE for cont linesearch -0.623E-06
 trial: gam= 1.29347 g(F)=  0.625E-03 g(S)=  0.256E-05 ort =-0.173E-04 (trialstep = 0.530E+00)
 search vector abs. value=  0.197E-02
 bond charge predicted
       N       E                     dE             d eps       ncg     rms          rms(c)
DAV:   1    -0.234022246781E+03    0.41103E-03   -0.55426E-02  3408   0.869E-01    0.103E-01
DAV:   2    -0.234022948057E+03   -0.70128E-03   -0.78982E-03  4320   0.258E-01    0.458E-02
DAV:   3    -0.234022938282E+03    0.97754E-05   -0.19184E-04  5648   0.457E-02    0.354E-02
DAV:   4    -0.234022929522E+03    0.87600E-05   -0.26058E-05  5056   0.126E-02    0.189E-02
DAV:   5    -0.234022927541E+03    0.19805E-05   -0.10809E-05  4008   0.829E-03    0.650E-03
DAV:   6    -0.234022927916E+03   -0.37452E-06   -0.18946E-06  2176   0.441E-03
  45 F= -.23402293E+03 E0= -.23402293E+03  d E =-.270553E-03
 trial-energy change:   -0.000271  1 .order   -0.000273   -0.000321   -0.000225
 step:   1.7785(harm=  1.7785)  dis= 0.00530  next Energy=  -234.023196 (dE=-0.538E-03)
 bond charge predicted
       N       E                     dE             d eps       ncg     rms          rms(c)
DAV:   1    -0.234019336527E+03    0.35910E-02   -0.30684E-01  3416   0.205E+00    0.248E-01
DAV:   2    -0.234023254274E+03   -0.39177E-02   -0.44254E-02  4312   0.606E-01    0.104E-01
DAV:   3    -0.234023201996E+03    0.52278E-04   -0.10851E-03  5648   0.108E-01    0.805E-02
DAV:   4    -0.234023155933E+03    0.46062E-04   -0.14530E-04  5288   0.298E-02    0.425E-02
DAV:   5    -0.234023143447E+03    0.12486E-04   -0.60791E-05  4832   0.197E-02    0.147E-02
DAV:   6    -0.234023145084E+03   -0.16368E-05   -0.15466E-05  4584   0.920E-03    0.882E-03
DAV:   7    -0.234023145326E+03   -0.24170E-06   -0.98845E-07  1992   0.370E-03
  46 F= -.23402315E+03 E0= -.23402315E+03  d E =-.487963E-03
 curvature:  -2.89 expect dE=-0.211E-02 dE for cont linesearch -0.919E-05
 trial: gam= 1.20982 g(F)=  0.724E-03 g(S)=  0.521E-05 ort =-0.791E-04 (trialstep = 0.449E+00)
 search vector abs. value=  0.342E-02
 bond charge predicted
       N       E                     dE             d eps       ncg     rms          rms(c)
DAV:   1    -0.234022467742E+03    0.67734E-03   -0.67195E-02  3400   0.983E-01    0.112E-01
DAV:   2    -0.234023415389E+03   -0.94765E-03   -0.10627E-02  4304   0.289E-01    0.462E-02
DAV:   3    -0.234023410184E+03    0.52052E-05   -0.24888E-04  5624   0.507E-02    0.365E-02
DAV:   4    -0.234023402267E+03    0.79167E-05   -0.27703E-05  5416   0.129E-02    0.197E-02
DAV:   5    -0.234023400006E+03    0.22608E-05   -0.11951E-05  4216   0.907E-03    0.681E-03
DAV:   6    -0.234023400427E+03   -0.42107E-06   -0.25976E-06  2400   0.456E-03
  47 F= -.23402340E+03 E0= -.23402340E+03  d E =-.255102E-03
 ZBRENT: can't locate minimum, use default step
 trial-energy change:   -0.000255  1 .order   -0.000257   -0.000284   -0.000229
 step:   1.7956(harm=  2.3307)  dis= 0.00902  next Energy=  -234.023883 (dE=-0.738E-03)
 bond charge predicted
       N       E                     dE             d eps       ncg     rms          rms(c)
DAV:   1    -0.234015302111E+03    0.80979E-02   -0.60489E-01  3392   0.295E+00    0.336E-01
DAV:   2    -0.234023840315E+03   -0.85382E-02   -0.95619E-02  4312   0.863E-01    0.140E-01
DAV:   3    -0.234023790432E+03    0.49883E-04   -0.21929E-03  5632   0.152E-01    0.111E-01
DAV:   4    -0.234023718348E+03    0.72085E-04   -0.24384E-04  5520   0.383E-02    0.605E-02
DAV:   5    -0.234023694455E+03    0.23893E-04   -0.11168E-04  4808   0.273E-02    0.212E-02
DAV:   6    -0.234023697688E+03   -0.32333E-05   -0.31382E-05  4576   0.127E-02    0.109E-02
DAV:   7    -0.234023697978E+03   -0.28999E-06   -0.20328E-06  2248   0.453E-03
  48 F= -.23402370E+03 E0= -.23402370E+03  d E =-.552652E-03
 curvature:  -5.78 expect dE=-0.560E-02 dE for cont linesearch -0.885E-05
 trial: gam= 0.80149 g(F)=  0.953E-03 g(S)=  0.156E-04 ort =-0.723E-04 (trialstep = 0.718E+00)
 search vector abs. value=  0.305E-02
 bond charge predicted
       N       E                     dE             d eps       ncg     rms          rms(c)
DAV:   1    -0.234021832512E+03    0.18652E-02   -0.14991E-01  3448   0.156E+00    0.162E-01
DAV:   2    -0.234024337346E+03   -0.25048E-02   -0.27983E-02  4304   0.421E-01    0.629E-02
DAV:   3    -0.234024355920E+03   -0.18574E-04   -0.77631E-04  5472   0.766E-02    0.514E-02
DAV:   4    -0.234024339194E+03    0.16726E-04   -0.66429E-05  5456   0.195E-02    0.272E-02
DAV:   5    -0.234024334683E+03    0.45111E-05   -0.27301E-05  4320   0.137E-02    0.846E-03
DAV:   6    -0.234024335428E+03   -0.74561E-06   -0.77825E-06  3752   0.687E-03
  49 F= -.23402434E+03 E0= -.23402434E+03  d E =-.637450E-03
 ZBRENT: can't locate minimum, use default step
 trial-energy change:   -0.000637  1 .order   -0.000623   -0.000654   -0.000591
 step:   2.8729(harm=  7.5147)  dis= 0.01367  next Energy=  -234.027118 (dE=-0.342E-02)
 bond charge predicted
       N       E                     dE             d eps       ncg     rms          rms(c)
DAV:   1    -0.234003179871E+03    0.21155E-01   -0.13506E+00  3464   0.468E+00    0.481E-01
DAV:   2    -0.234025245710E+03   -0.22066E-01   -0.24663E-01  4264   0.124E+00    0.188E-01
DAV:   3    -0.234025427661E+03   -0.18195E-03   -0.69174E-03  5488   0.230E-01    0.154E-01
DAV:   4    -0.234025287178E+03    0.14048E-03   -0.59473E-04  5400   0.596E-02    0.827E-02
DAV:   5    -0.234025246167E+03    0.41012E-04   -0.24762E-04  4680   0.419E-02    0.263E-02
DAV:   6    -0.234025253606E+03   -0.74397E-05   -0.72449E-05  4864   0.201E-02    0.222E-02
DAV:   7    -0.234025253235E+03    0.37081E-06   -0.81305E-06  4136   0.638E-03
  50 F= -.23402525E+03 E0= -.23402525E+03  d E =-.155526E-02
 curvature:  -6.71 expect dE=-0.184E-01 dE for cont linesearch -0.130E-03
 ZBRENT: interpolating
 opt :   2.3819  next Energy=  -234.025313 (dE=-0.161E-02)
 bond charge predicted
       N       E                     dE             d eps       ncg     rms          rms(c)
DAV:   1    -0.234024145316E+03    0.11083E-02   -0.70004E-02  3496   0.107E+00    0.102E-01
DAV:   2    -0.234025275967E+03   -0.11307E-02   -0.12560E-02  4264   0.283E-01    0.467E-02
DAV:   3    -0.234025283443E+03   -0.74758E-05   -0.33995E-04  5528   0.510E-02    0.379E-02
DAV:   4    -0.234025275380E+03    0.80633E-05   -0.27994E-05  5312   0.130E-02    0.210E-02
DAV:   5    -0.234025272951E+03    0.24288E-05   -0.13281E-05  4048   0.958E-03    0.651E-03
DAV:   6    -0.234025273333E+03   -0.38227E-06   -0.32127E-06  2696   0.493E-03
  51 F= -.23402527E+03 E0= -.23402527E+03  d E =-.157536E-02
 curvature:  -3.08 expect dE=-0.645E-02 dE for cont linesearch -0.209E-04
 trial: gam= 1.44876 g(F)=  0.208E-02 g(S)=  0.128E-04 ort = 0.144E-03 (trialstep = 0.360E+00)
 search vector abs. value=  0.891E-02
 bond charge predicted
       N       E                     dE             d eps       ncg     rms          rms(c)
DAV:   1    -0.234024153411E+03    0.11195E-02   -0.11161E-01  3512   0.134E+00    0.135E-01
DAV:   2    -0.234025984842E+03   -0.18314E-02   -0.20395E-02  4264   0.344E-01    0.546E-02
DAV:   3    -0.234026001459E+03   -0.16617E-04   -0.59678E-04  5544   0.650E-02    0.455E-02
DAV:   4    -0.234025989900E+03    0.11559E-04   -0.44876E-05  5344   0.166E-02    0.244E-02
DAV:   5    -0.234025985909E+03    0.39905E-05   -0.20656E-05  4272   0.121E-02    0.743E-03
DAV:   6    -0.234025986308E+03   -0.39869E-06   -0.60923E-06  3560   0.615E-03
  52 F= -.23402599E+03 E0= -.23402599E+03  d E =-.712975E-03
 trial-energy change:   -0.000713  1 .order   -0.000705   -0.000828   -0.000582
 step:   0.9281(harm=  1.2096)  dis= 0.00576  next Energy=  -234.026478 (dE=-0.120E-02)
 bond charge predicted
       N       E                     dE             d eps       ncg     rms          rms(c)
DAV:   1    -0.234021866694E+03    0.41192E-02   -0.27896E-01  3504   0.212E+00    0.221E-01
DAV:   2    -0.234026438662E+03   -0.45720E-02   -0.51120E-02  4304   0.546E-01    0.837E-02
DAV:   3    -0.234026476266E+03   -0.37604E-04   -0.14674E-03  5592   0.102E-01    0.692E-02
DAV:   4    -0.234026450089E+03    0.26177E-04   -0.11061E-04  5416   0.263E-02    0.365E-02
DAV:   5    -0.234026440911E+03    0.91782E-05   -0.48074E-05  4608   0.189E-02    0.113E-02
DAV:   6    -0.234026442101E+03   -0.11894E-05   -0.15329E-05  4224   0.922E-03    0.103E-02
DAV:   7    -0.234026441728E+03    0.37231E-06   -0.12573E-06  2088   0.349E-03
  53 F= -.23402644E+03 E0= -.23402644E+03  d E =-.116840E-02
 curvature:  -2.08 expect dE=-0.440E-02 dE for cont linesearch -0.512E-05
 trial: gam= 0.51352 g(F)=  0.208E-02 g(S)=  0.361E-04 ort =-0.148E-03 (trialstep = 0.473E+00)
 search vector abs. value=  0.431E-02
 bond charge predicted
       N       E                     dE             d eps       ncg     rms          rms(c)
DAV:   1    -0.234026095079E+03    0.34702E-03   -0.10202E-01  3336   0.109E+00    0.138E-01
DAV:   2    -0.234027271466E+03   -0.11764E-02   -0.13274E-02  4264   0.319E-01    0.555E-02
DAV:   3    -0.234027257246E+03    0.14220E-04   -0.40962E-04  5656   0.599E-02    0.438E-02
DAV:   4    -0.234027244452E+03    0.12794E-04   -0.41643E-05  5248   0.163E-02    0.219E-02
DAV:   5    -0.234027238007E+03    0.64453E-05   -0.21239E-05  4064   0.121E-02    0.743E-03
DAV:   6    -0.234027238452E+03   -0.44485E-06   -0.83036E-06  3768   0.684E-03
  54 F= -.23402724E+03 E0= -.23402724E+03  d E =-.796723E-03
 trial-energy change:   -0.000797  1 .order   -0.000805   -0.000963   -0.000646
 step:   1.4379(harm=  1.4379)  dis= 0.00636  next Energy=  -234.027905 (dE=-0.146E-02)
 bond charge predicted
       N       E                     dE             d eps       ncg     rms          rms(c)
DAV:   1    -0.234023081079E+03    0.41569E-02   -0.42278E-01  3376   0.222E+00    0.278E-01
DAV:   2    -0.234027930998E+03   -0.48499E-02   -0.54815E-02  4296   0.650E-01    0.113E-01
DAV:   3    -0.234027858713E+03    0.72285E-04   -0.15572E-03  5656   0.120E-01    0.892E-02
DAV:   4    -0.234027807205E+03    0.51508E-04   -0.16921E-04  5320   0.328E-02    0.449E-02
DAV:   5    -0.234027780388E+03    0.26817E-04   -0.87683E-05  4336   0.247E-02    0.154E-02
DAV:   6    -0.234027782744E+03   -0.23565E-05   -0.36098E-05  4536   0.138E-02    0.134E-02
DAV:   7    -0.234027781878E+03    0.86594E-06   -0.36525E-06  2896   0.503E-03
  55 F= -.23402778E+03 E0= -.23402778E+03  d E =-.134015E-02
 curvature:  -1.52 expect dE=-0.371E-02 dE for cont linesearch -0.345E-04
 trial: gam= 1.06174 g(F)=  0.241E-02 g(S)=  0.299E-04 ort =-0.313E-03 (trialstep = 0.433E+00)
 search vector abs. value=  0.663E-02
 bond charge predicted
       N       E                     dE             d eps       ncg     rms          rms(c)
DAV:   1    -0.234027531063E+03    0.25168E-03   -0.14140E-01  3304   0.106E+00    0.167E-01
DAV:   2    -0.234028575894E+03   -0.10448E-02   -0.12015E-02  4376   0.354E-01    0.702E-02
DAV:   3    -0.234028543592E+03    0.32302E-04   -0.39087E-04  5760   0.648E-02    0.532E-02
DAV:   4    -0.234028524941E+03    0.18651E-04   -0.51447E-05  5200   0.191E-02    0.256E-02
DAV:   5    -0.234028517129E+03    0.78118E-05   -0.25948E-05  4280   0.130E-02    0.783E-03
DAV:   6    -0.234028517268E+03   -0.13936E-06   -0.71221E-06  3408   0.670E-03
  56 F= -.23402852E+03 E0= -.23402852E+03  d E =-.735390E-03
 trial-energy change:   -0.000735  1 .order   -0.000726   -0.000912   -0.000539
 step:   0.9029(harm=  1.0587)  dis= 0.00564  next Energy=  -234.028823 (dE=-0.104E-02)
 bond charge predicted
       N       E                     dE             d eps       ncg     rms          rms(c)
DAV:   1    -0.234027697770E+03    0.81936E-03   -0.16676E-01  3304   0.115E+00    0.181E-01
DAV:   2    -0.234028920634E+03   -0.12229E-02   -0.14097E-02  4368   0.384E-01    0.758E-02
DAV:   3    -0.234028882864E+03    0.37770E-04   -0.45975E-04  5744   0.700E-02    0.573E-02
DAV:   4    -0.234028861012E+03    0.21851E-04   -0.61918E-05  5304   0.208E-02    0.275E-02
DAV:   5    -0.234028852070E+03    0.89428E-05   -0.30282E-05  4344   0.140E-02    0.839E-03
DAV:   6    -0.234028852278E+03   -0.20877E-06   -0.85754E-06  3656   0.716E-03
  57 F= -.23402885E+03 E0= -.23402885E+03  d E =-.107040E-02
 curvature:  -1.56 expect dE=-0.158E-02 dE for cont linesearch -0.637E-05
 trial: gam= 0.01842 g(F)=  0.100E-02 g(S)=  0.614E-05 ort = 0.164E-03 (trialstep = 0.527E+00)
 search vector abs. value=  0.102E-02
 bond charge predicted
       N       E                     dE             d eps       ncg     rms          rms(c)
DAV:   1    -0.234028707783E+03    0.14429E-03   -0.28847E-02  3800   0.755E-01    0.674E-02
DAV:   2    -0.234029232560E+03   -0.52478E-03   -0.58487E-03  4264   0.165E-01    0.273E-02
DAV:   3    -0.234029234822E+03   -0.22613E-05   -0.18626E-04  5128   0.343E-02    0.210E-02
DAV:   4    -0.234029232028E+03    0.27937E-05   -0.11985E-05  4656   0.858E-03    0.123E-02
DAV:   5    -0.234029229961E+03    0.20672E-05   -0.64769E-06  3344   0.735E-03    0.489E-03
DAV:   6    -0.234029229932E+03    0.28322E-07   -0.21187E-06  2392   0.430E-03
  58 F= -.23402923E+03 E0= -.23402923E+03  d E =-.377654E-03
 trial-energy change:   -0.000378  1 .order   -0.000381   -0.000534   -0.000227
 step:   0.9168(harm=  0.9168)  dis= 0.00397  next Energy=  -234.029317 (dE=-0.465E-03)
 bond charge predicted
       N       E                     dE             d eps       ncg     rms          rms(c)
DAV:   1    -0.234029022022E+03    0.20794E-03   -0.15805E-02  3776   0.560E-01    0.507E-02
DAV:   2    -0.234029312046E+03   -0.29002E-03   -0.32436E-03  4248   0.123E-01    0.204E-02
DAV:   3    -0.234029313452E+03   -0.14060E-05   -0.10374E-04  5176   0.259E-02    0.155E-02
DAV:   4    -0.234029311852E+03    0.16003E-05   -0.61520E-06  3848   0.646E-03    0.919E-03
DAV:   5    -0.234029310781E+03    0.10710E-05   -0.64625E-06  3336   0.677E-03    0.389E-03
DAV:   6    -0.234029310788E+03   -0.77998E-08   -0.11837E-06  2128   0.364E-03
  59 F= -.23402931E+03 E0= -.23402931E+03  d E =-.458510E-03
 curvature:  -0.46 expect dE=-0.196E-03 dE for cont linesearch -0.356E-07
 trial: gam= 0.43269 g(F)=  0.415E-03 g(S)=  0.981E-05 ort =-0.887E-05 (trialstep = 0.605E+00)
 search vector abs. value=  0.608E-03
 bond charge predicted
       N       E                     dE             d eps       ncg     rms          rms(c)
DAV:   1    -0.234029323592E+03   -0.12812E-04   -0.23148E-02  3328   0.468E-01    0.681E-02
DAV:   2    -0.234029539593E+03   -0.21600E-03   -0.25034E-03  4288   0.157E-01    0.296E-02
DAV:   3    -0.234029533518E+03    0.60749E-05   -0.69044E-05  5672   0.286E-02    0.227E-02
DAV:   4    -0.234029529866E+03    0.36526E-05   -0.10549E-05  4432   0.853E-03    0.109E-02
DAV:   5    -0.234029529435E+03    0.43108E-06   -0.44752E-06  3168   0.571E-03
  60 F= -.23402953E+03 E0= -.23402953E+03  d E =-.218646E-03
 trial-energy change:   -0.000219  1 .order   -0.000221   -0.000255   -0.000186
 step:   2.2454(harm=  2.2454)  dis= 0.00346  next Energy=  -234.029784 (dE=-0.473E-03)
 bond charge predicted
       N       E                     dE             d eps       ncg     rms          rms(c)
DAV:   1    -0.234028300495E+03    0.12294E-02   -0.17017E-01  3328   0.127E+00    0.183E-01
DAV:   2    -0.234029881108E+03   -0.15806E-02   -0.18225E-02  4288   0.424E-01    0.815E-02
DAV:   3    -0.234029837058E+03    0.44050E-04   -0.49611E-04  5648   0.766E-02    0.622E-02
DAV:   4    -0.234029808840E+03    0.28217E-04   -0.79770E-05  5232   0.230E-02    0.300E-02
DAV:   5    -0.234029803932E+03    0.49086E-05   -0.35231E-05  4712   0.145E-02    0.845E-03
DAV:   6    -0.234029805097E+03   -0.11651E-05   -0.51301E-06  3200   0.568E-03    0.623E-03
DAV:   7    -0.234029805423E+03   -0.32625E-06   -0.74821E-07  1984   0.320E-03
  61 F= -.23402981E+03 E0= -.23402981E+03  d E =-.494635E-03
 curvature:  -1.62 expect dE=-0.419E-03 dE for cont linesearch -0.234E-05
 trial: gam= 0.51331 g(F)=  0.244E-03 g(S)=  0.149E-04 ort = 0.296E-04 (trialstep = 0.933E+00)
 search vector abs. value=  0.450E-03
 bond charge predicted
       N       E                     dE             d eps       ncg     rms          rms(c)
DAV:   1    -0.234029567292E+03    0.23781E-03   -0.39468E-02  3392   0.726E-01    0.886E-02
DAV:   2    -0.234030020825E+03   -0.45353E-03   -0.53442E-03  4240   0.220E-01    0.427E-02
DAV:   3    -0.234030007653E+03    0.13172E-04   -0.14511E-04  5488   0.407E-02    0.320E-02
DAV:   4    -0.234029997518E+03    0.10135E-04   -0.23011E-05  4784   0.123E-02    0.150E-02
DAV:   5    -0.234029993946E+03    0.35714E-05   -0.10478E-05  4040   0.861E-03    0.437E-03
DAV:   6    -0.234029993534E+03    0.41253E-06   -0.20124E-06  2176   0.462E-03
  62 F= -.23402999E+03 E0= -.23402999E+03  d E =-.188111E-03
 trial-energy change:   -0.000188  1 .order   -0.000186   -0.000256   -0.000117
 step:   1.7162(harm=  1.7162)  dis= 0.00251  next Energy=  -234.030041 (dE=-0.235E-03)
 bond charge predicted
       N       E                     dE             d eps       ncg     rms          rms(c)
DAV:   1    -0.234029740995E+03    0.25295E-03   -0.27801E-02  3392   0.609E-01    0.751E-02
DAV:   2    -0.234030061181E+03   -0.32019E-03   -0.37802E-03  4256   0.185E-01    0.352E-02
DAV:   3    -0.234030051893E+03    0.92885E-05   -0.10286E-04  5488   0.342E-02    0.264E-02
DAV:   4    -0.234030044740E+03    0.71534E-05   -0.16220E-05  4664   0.104E-02    0.123E-02
DAV:   5    -0.234030042047E+03    0.26926E-05   -0.71527E-06  3600   0.737E-03    0.362E-03
DAV:   6    -0.234030041700E+03    0.34657E-06   -0.15796E-06  2120   0.424E-03
  63 F= -.23403004E+03 E0= -.23403004E+03  d E =-.236277E-03
 curvature:  -1.41 expect dE=-0.319E-03 dE for cont linesearch -0.741E-07
 trial: gam= 0.94959 g(F)=  0.224E-03 g(S)=  0.256E-05 ort = 0.486E-05 (trialstep = 0.764E+00)
 search vector abs. value=  0.641E-03
 bond charge predicted
       N       E                     dE             d eps       ncg     rms          rms(c)
DAV:   1    -0.234029842717E+03    0.19933E-03   -0.41421E-02  3328   0.644E-01    0.827E-02
DAV:   2    -0.234030200336E+03   -0.35762E-03   -0.41555E-03  4224   0.201E-01    0.370E-02
DAV:   3    -0.234030192509E+03    0.78271E-05   -0.12079E-04  5624   0.365E-02    0.277E-02
DAV:   4    -0.234030185300E+03    0.72089E-05   -0.18291E-05  4832   0.110E-02    0.128E-02
DAV:   5    -0.234030183199E+03    0.21002E-05   -0.79763E-06  3544   0.744E-03    0.299E-03
DAV:   6    -0.234030183024E+03    0.17567E-06   -0.12593E-06  2096   0.396E-03
  64 F= -.23403018E+03 E0= -.23403018E+03  d E =-.141323E-03
 trial-energy change:   -0.000141  1 .order   -0.000143   -0.000177   -0.000109
 step:   2.0067(harm=  2.0067)  dis= 0.00353  next Energy=  -234.030274 (dE=-0.232E-03)
 bond charge predicted
       N       E                     dE             d eps       ncg     rms          rms(c)
DAV:   1    -0.234029382965E+03    0.80023E-03   -0.10983E-01  3328   0.105E+00    0.134E-01
DAV:   2    -0.234030317325E+03   -0.93436E-03   -0.10850E-02  4240   0.327E-01    0.607E-02
DAV:   3    -0.234030297069E+03    0.20257E-04   -0.31790E-04  5624   0.591E-02    0.454E-02
DAV:   4    -0.234030278030E+03    0.19039E-04   -0.49002E-05  5096   0.180E-02    0.208E-02
DAV:   5    -0.234030273399E+03    0.46311E-05   -0.21350E-05  4320   0.117E-02    0.495E-03
DAV:   6    -0.234030273178E+03    0.22112E-06   -0.33663E-06  2664   0.535E-03
  65 F= -.23403027E+03 E0= -.23403027E+03  d E =-.231477E-03
 curvature:  -2.78 expect dE=-0.549E-03 dE for cont linesearch -0.142E-08
 trial: gam= 0.83500 g(F)=  0.194E-03 g(S)=  0.341E-05 ort = 0.573E-06 (trialstep = 0.101E+01)
 search vector abs. value=  0.645E-03
 bond charge predicted
       N       E                     dE             d eps       ncg     rms          rms(c)
DAV:   1    -0.234029898495E+03    0.37490E-03   -0.79451E-02  3392   0.849E-01    0.101E-01
DAV:   2    -0.234030462434E+03   -0.56394E-03   -0.64614E-03  4272   0.247E-01    0.430E-02
DAV:   3    -0.234030457490E+03    0.49442E-05   -0.22490E-04  5560   0.455E-02    0.324E-02
DAV:   4    -0.234030450192E+03    0.72978E-05   -0.25814E-05  5224   0.135E-02    0.150E-02
DAV:   5    -0.234030448504E+03    0.16876E-05   -0.10550E-05  3976   0.854E-03    0.403E-03
DAV:   6    -0.234030448802E+03   -0.29790E-06   -0.18631E-06  2160   0.445E-03
  66 F= -.23403045E+03 E0= -.23403045E+03  d E =-.175625E-03
 ZBRENT: can't locate minimum, use default step
 trial-energy change:   -0.000176  1 .order   -0.000178   -0.000199   -0.000157
 step:   4.0240(harm=  4.8173)  dis= 0.01102  next Energy=  -234.030750 (dE=-0.476E-03)
 bond charge predicted
       N       E                     dE             d eps       ncg     rms          rms(c)
DAV:   1    -0.234025762121E+03    0.46864E-02   -0.71514E-01  3392   0.255E+00    0.297E-01
DAV:   2    -0.234030821502E+03   -0.50594E-02   -0.57774E-02  4232   0.741E-01    0.132E-01
DAV:   3    -0.234030780856E+03    0.40646E-04   -0.20297E-03  5600   0.136E-01    0.999E-02
DAV:   4    -0.234030712629E+03    0.68227E-04   -0.23096E-04  5496   0.399E-02    0.472E-02
DAV:   5    -0.234030694448E+03    0.18180E-04   -0.10228E-04  4616   0.259E-02    0.124E-02
DAV:   6    -0.234030696758E+03   -0.23102E-05   -0.21895E-05  4280   0.111E-02    0.132E-02
DAV:   7    -0.234030696831E+03   -0.72174E-07   -0.17922E-06  2088   0.431E-03
  67 F= -.23403070E+03 E0= -.23403070E+03  d E =-.423653E-03
 curvature:  -7.52 expect dE=-0.834E-02 dE for cont linesearch -0.303E-06
 trial: gam= 5.54303 g(F)=  0.105E-02 g(S)=  0.544E-04 ort = 0.510E-05 (trialstep = 0.495E-01)
 search vector abs. value=  0.210E-01
 bond charge predicted
       N       E                     dE             d eps       ncg     rms          rms(c)
DAV:   1    -0.234030720575E+03   -0.23816E-04   -0.68121E-03  3328   0.199E-01    0.293E-02
DAV:   2    -0.234030756424E+03   -0.35849E-04   -0.40769E-04  4440   0.630E-02    0.114E-02
DAV:   3    -0.234030756017E+03    0.40689E-06   -0.15281E-05  5312   0.115E-02    0.838E-03
DAV:   4    -0.234030755459E+03    0.55753E-06   -0.13274E-06  2248   0.397E-03
  68 F= -.23403076E+03 E0= -.23403076E+03  d E =-.586286E-04
 ZBRENT: can't locate minimum, use default step
 trial-energy change:   -0.000059  1 .order   -0.000058   -0.000056   -0.000060
 step:   0.1979(harm=  0.1979)  dis= 0.00355  next Energy=  -234.030953 (dE=-0.257E-03)
 bond charge predicted
       N       E                     dE             d eps       ncg     rms          rms(c)
DAV:   1    -0.234030641676E+03    0.11434E-03   -0.60663E-02  3328   0.594E-01    0.813E-02
DAV:   2    -0.234030937179E+03   -0.29550E-03   -0.33917E-03  4440   0.181E-01    0.351E-02
DAV:   3    -0.234030936233E+03    0.94585E-06   -0.15017E-04  5592   0.333E-02    0.258E-02
DAV:   4    -0.234030932380E+03    0.38535E-05   -0.15755E-05  4920   0.107E-02    0.119E-02
DAV:   5    -0.234030930911E+03    0.14682E-05   -0.58667E-06  3336   0.660E-03    0.302E-03
DAV:   6    -0.234030930916E+03   -0.51041E-08   -0.11984E-06  2024   0.384E-03
  69 F= -.23403093E+03 E0= -.23403093E+03  d E =-.234086E-03
 curvature:  -2.81 expect dE=-0.372E-02 dE for cont linesearch -0.186E-03
 ZBRENT: increasing intervall
 opt :   0.4948  next Energy=  -234.031268 (dE=-0.572E-03)
 bond charge predicted
       N       E                     dE             d eps       ncg     rms          rms(c)
DAV:   1    -0.234030066366E+03    0.86455E-03   -0.24361E-01  3328   0.119E+00    0.164E-01
DAV:   2    -0.234031254203E+03   -0.11878E-02   -0.13584E-02  4432   0.362E-01    0.716E-02
DAV:   3    -0.234031247229E+03    0.69731E-05   -0.57607E-04  5552   0.656E-02    0.527E-02
DAV:   4    -0.234031231034E+03    0.16195E-04   -0.65284E-05  5320   0.214E-02    0.242E-02
DAV:   5    -0.234031226113E+03    0.49214E-05   -0.24930E-05  4488   0.128E-02    0.596E-03
DAV:   6    -0.234031226258E+03   -0.14489E-06   -0.42430E-06  2936   0.572E-03
  70 F= -.23403123E+03 E0= -.23403123E+03  d E =-.529427E-03
 curvature:  -5.12 expect dE=-0.826E-02 dE for cont linesearch -0.123E-03
 ZBRENT: increasing intervall
 opt :   1.0885  next Energy=  -234.031372 (dE=-0.675E-03)
 bond charge predicted
       N       E                     dE             d eps       ncg     rms          rms(c)
DAV:   1    -0.234026504495E+03    0.47216E-02   -0.97481E-01  3328   0.238E+00    0.328E-01
DAV:   2    -0.234031218607E+03   -0.47141E-02   -0.53883E-02  4432   0.718E-01    0.144E-01
DAV:   3    -0.234031200670E+03    0.17937E-04   -0.23822E-03  5576   0.131E-01    0.105E-01
DAV:   4    -0.234031137236E+03    0.63435E-04   -0.25848E-04  5592   0.431E-02    0.488E-02
DAV:   5    -0.234031118113E+03    0.19123E-04   -0.10289E-04  4744   0.257E-02    0.118E-02
DAV:   6    -0.234031119329E+03   -0.12161E-05   -0.19510E-05  4416   0.104E-02    0.126E-02
DAV:   7    -0.234031119057E+03    0.27146E-06   -0.17140E-06  2136   0.409E-03
  71 F= -.23403112E+03 E0= -.23403112E+03  d E =-.422227E-03
 curvature:  -6.05 expect dE=-0.143E-01 dE for cont linesearch -0.501E-03
 ZBRENT: bracketing found
 ZBRENT: interpolating
 opt :   0.7028  next Energy=  -234.031300 (dE=-0.603E-03)
 bond charge predicted
       N       E                     dE             d eps       ncg     rms          rms(c)
DAV:   1    -0.234029402162E+03    0.17172E-02   -0.41135E-01  3328   0.155E+00    0.207E-01
DAV:   2    -0.234031367552E+03   -0.19654E-02   -0.22467E-02  4456   0.464E-01    0.939E-02
DAV:   3    -0.234031354182E+03    0.13369E-04   -0.93381E-04  5544   0.836E-02    0.693E-02
DAV:   4    -0.234031326677E+03    0.27506E-04   -0.10858E-04  5376   0.276E-02    0.320E-02
DAV:   5    -0.234031320095E+03    0.65816E-05   -0.42097E-05  4552   0.164E-02    0.782E-03
DAV:   6    -0.234031320940E+03   -0.84454E-06   -0.70672E-06  3704   0.674E-03
  72 F= -.23403132E+03 E0= -.23403132E+03  d E =-.624109E-03
 curvature:  -0.89 expect dE=-0.163E-02 dE for cont linesearch -0.103E-05
 trial: gam= 0.47133 g(F)=  0.174E-02 g(S)=  0.893E-04 ort = 0.156E-03 (trialstep = 0.180E+00)
 search vector abs. value=  0.664E-02
 bond charge predicted
       N       E                     dE             d eps       ncg     rms          rms(c)
DAV:   1    -0.234031464536E+03   -0.14444E-03   -0.30139E-02  3336   0.536E-01    0.464E-02
DAV:   2    -0.234031645004E+03   -0.18047E-03   -0.21376E-03  4248   0.123E-01    0.245E-02
DAV:   3    -0.234031642520E+03    0.24845E-05   -0.72724E-05  5480   0.247E-02    0.182E-02
DAV:   4    -0.234031639287E+03    0.32332E-05   -0.92226E-06  4568   0.861E-03    0.804E-03
DAV:   5    -0.234031637653E+03    0.16335E-05   -0.20211E-06  2112   0.480E-03    0.265E-03
DAV:   6    -0.234031637271E+03    0.38252E-06   -0.87195E-07  1960   0.503E-03
  73 F= -.23403164E+03 E0= -.23403164E+03  d E =-.316331E-03
 ZBRENT: can't locate minimum, use default step
 trial-energy change:   -0.000316  1 .order   -0.000316   -0.000342   -0.000290
 step:   0.7206(harm=  1.1859)  dis= 0.00757  next Energy=  -234.032446 (dE=-0.113E-02)
 bond charge predicted
       N       E                     dE             d eps       ncg     rms          rms(c)
DAV:   1    -0.234030638084E+03    0.99957E-03   -0.27105E-01  3328   0.161E+00    0.145E-01
DAV:   2    -0.234032251402E+03   -0.16133E-02   -0.19382E-02  4256   0.370E-01    0.710E-02
DAV:   3    -0.234032229394E+03    0.22007E-04   -0.67762E-04  5520   0.747E-02    0.512E-02
DAV:   4    -0.234032206276E+03    0.23118E-04   -0.82870E-05  5464   0.258E-02    0.230E-02
DAV:   5    -0.234032198154E+03    0.81226E-05   -0.23426E-05  4824   0.130E-02    0.842E-03
[...]
Note: The following floating-point exceptions are signalling: IEEE_INVALID_FLAG IEEE_UNDERFLOW_FLAG IEEE_DENORMAL
Note: The following floating-point exceptions are signalling: IEEE_INVALID_FLAG IEEE_UNDERFLOW_FLAG IEEE_DENORMAL
Note: The following floating-point exceptions are signalling: IEEE_INVALID_FLAG IEEE_UNDERFLOW_FLAG IEEE_DENORMAL
Note: The following floating-point exceptions are signalling: IEEE_INVALID_FLAG IEEE_UNDERFLOW_FLAG IEEE_DENORMAL
Note: The following floating-point exceptions are signalling: IEEE_INVALID_FLAG IEEE_UNDERFLOW_FLAG IEEE_DENORMAL
Note: The following floating-point exceptions are signalling: IEEE_INVALID_FLAG IEEE_UNDERFLOW_FLAG IEEE_DENORMAL
Note: The following floating-point exceptions are signalling: IEEE_INVALID_FLAG IEEE_UNDERFLOW_FLAG IEEE_DENORMAL
Note: The following floating-point exceptions are signalling: IEEE_INVALID_FLAG IEEE_UNDERFLOW_FLAG IEEE_DENORMAL
Note: The following floating-point exceptions are signalling: IEEE_INVALID_FLAG IEEE_UNDERFLOW_FLAG IEEE_DENORMAL
Note: The following floating-point exceptions are signalling: IEEE_INVALID_FLAG IEEE_UNDERFLOW_FLAG IEEE_DENORMAL
Note: The following floating-point exceptions are signalling: IEEE_INVALID_FLAG IEEE_UNDERFLOW_FLAG IEEE_DENORMAL
Note: The following floating-point exceptions are signalling: IEEE_INVALID_FLAG IEEE_UNDERFLOW_FLAG IEEE_DENORMAL
Note: The following floating-point exceptions are signalling: IEEE_INVALID_FLAG IEEE_UNDERFLOW_FLAG IEEE_DENORMAL
Note: The following floating-point exceptions are signalling: IEEE_INVALID_FLAG IEEE_UNDERFLOW_FLAG IEEE_DENORMAL
Note: The following floating-point exceptions are signalling: IEEE_INVALID_FLAG IEEE_UNDERFLOW_FLAG IEEE_DENORMAL
Note: The following floating-point exceptions are signalling: IEEE_INVALID_FLAG IEEE_UNDERFLOW_FLAG IEEE_DENORMAL
Note: The following floating-point exceptions are signalling: IEEE_INVALID_FLAG IEEE_UNDERFLOW_FLAG IEEE_DENORMAL
Note: The following floating-point exceptions are signalling: IEEE_INVALID_FLAG IEEE_UNDERFLOW_FLAG IEEE_DENORMAL
Note: The following floating-point exceptions are signalling: IEEE_INVALID_FLAG IEEE_UNDERFLOW_FLAG IEEE_DENORMAL
Note: The following floating-point exceptions are signalling: IEEE_INVALID_FLAG IEEE_UNDERFLOW_FLAG IEEE_DENORMAL
Note: The following floating-point exceptions are signalling: IEEE_INVALID_FLAG IEEE_UNDERFLOW_FLAG IEEE_DENORMAL
Note: The following floating-point exceptions are signalling: IEEE_INVALID_FLAG IEEE_UNDERFLOW_FLAG IEEE_DENORMAL
Note: The following floating-point exceptions are signalling: IEEE_INVALID_FLAG IEEE_UNDERFLOW_FLAG IEEE_DENORMAL
Note: The following floating-point exceptions are signalling: IEEE_INVALID_FLAG IEEE_UNDERFLOW_FLAG IEEE_DENORMAL
Note: The following floating-point exceptions are signalling: IEEE_INVALID_FLAG IEEE_UNDERFLOW_FLAG IEEE_DENORMAL
Note: The following floating-point exceptions are signalling: IEEE_INVALID_FLAG IEEE_UNDERFLOW_FLAG IEEE_DENORMAL
Note: The following floating-point exceptions are signalling: IEEE_INVALID_FLAG IEEE_UNDERFLOW_FLAG IEEE_DENORMAL
Note: The following floating-point exceptions are signalling: IEEE_INVALID_FLAG IEEE_UNDERFLOW_FLAG IEEE_DENORMAL
Note: The following floating-point exceptions are signalling: IEEE_INVALID_FLAG IEEE_UNDERFLOW_FLAG IEEE_DENORMAL
Note: The following floating-point exceptions are signalling: IEEE_INVALID_FLAG IEEE_UNDERFLOW_FLAG IEEE_DENORMAL
Note: The following floating-point exceptions are signalling: IEEE_INVALID_FLAG IEEE_UNDERFLOW_FLAG IEEE_DENORMAL
Note: The following floating-point exceptions are signalling: IEEE_INVALID_FLAG IEEE_UNDERFLOW_FLAG IEEE_DENORMAL
Note: The following floating-point exceptions are signalling: IEEE_INVALID_FLAG IEEE_UNDERFLOW_FLAG IEEE_DENORMAL
Note: The following floating-point exceptions are signalling: IEEE_INVALID_FLAG IEEE_UNDERFLOW_FLAG IEEE_DENORMAL
Note: The following floating-point exceptions are signalling: IEEE_INVALID_FLAG IEEE_UNDERFLOW_FLAG IEEE_DENORMAL
Note: The following floating-point exceptions are signalling: IEEE_INVALID_FLAG IEEE_UNDERFLOW_FLAG IEEE_DENORMAL
Note: The following floating-point exceptions are signalling: IEEE_INVALID_FLAG IEEE_UNDERFLOW_FLAG IEEE_DENORMAL
Note: The following floating-point exceptions are signalling: IEEE_INVALID_FLAG IEEE_UNDERFLOW_FLAG IEEE_DENORMAL
Note: The following floating-point exceptions are signalling: IEEE_INVALID_FLAG IEEE_UNDERFLOW_FLAG IEEE_DENORMAL
Note: The following floating-point exceptions are signalling: IEEE_INVALID_FLAG IEEE_UNDERFLOW_FLAG IEEE_DENORMAL
Note: The following floating-point exceptions are signalling: IEEE_INVALID_FLAG IEEE_UNDERFLOW_FLAG IEEE_DENORMAL
Note: The following floating-point exceptions are signalling: IEEE_INVALID_FLAG IEEE_UNDERFLOW_FLAG IEEE_DENORMAL
Note: The following floating-point exceptions are signalling: IEEE_INVALID_FLAG IEEE_UNDERFLOW_FLAG IEEE_DENORMAL
Note: The following floating-point exceptions are signalling: IEEE_INVALID_FLAG IEEE_UNDERFLOW_FLAG IEEE_DENORMAL
Note: The following floating-point exceptions are signalling: IEEE_INVALID_FLAG IEEE_UNDERFLOW_FLAG IEEE_DENORMAL
Note: The following floating-point exceptions are signalling: IEEE_INVALID_FLAG IEEE_UNDERFLOW_FLAG IEEE_DENORMAL
Note: The following floating-point exceptions are signalling: IEEE_INVALID_FLAG IEEE_UNDERFLOW_FLAG IEEE_DENORMAL
Note: The following floating-point exceptions are signalling: IEEE_INVALID_FLAG IEEE_UNDERFLOW_FLAG IEEE_DENORMAL
Note: The following floating-point exceptions are signalling: IEEE_INVALID_FLAG IEEE_UNDERFLOW_FLAG IEEE_DENORMAL
Note: The following floating-point exceptions are signalling: IEEE_INVALID_FLAG IEEE_UNDERFLOW_FLAG IEEE_DENORMAL
Note: The following floating-point exceptions are signalling: IEEE_INVALID_FLAG IEEE_UNDERFLOW_FLAG IEEE_DENORMAL
Note: The following floating-point exceptions are signalling: IEEE_INVALID_FLAG IEEE_UNDERFLOW_FLAG IEEE_DENORMAL
Note: The following floating-point exceptions are signalling: IEEE_INVALID_FLAG IEEE_UNDERFLOW_FLAG IEEE_DENORMAL
Note: The following floating-point exceptions are signalling: IEEE_INVALID_FLAG IEEE_UNDERFLOW_FLAG IEEE_DENORMAL
Note: The following floating-point exceptions are signalling: IEEE_INVALID_FLAG IEEE_UNDERFLOW_FLAG IEEE_DENORMAL
Note: The following floating-point exceptions are signalling: IEEE_INVALID_FLAG IEEE_UNDERFLOW_FLAG IEEE_DENORMAL
Note: The following floating-point exceptions are signalling: IEEE_INVALID_FLAG IEEE_UNDERFLOW_FLAG IEEE_DENORMAL
Note: The following floating-point exceptions are signalling: IEEE_INVALID_FLAG IEEE_UNDERFLOW_FLAG IEEE_DENORMAL
Note: The following floating-point exceptions are signalling: IEEE_INVALID_FLAG IEEE_UNDERFLOW_FLAG IEEE_DENORMAL
Note: The following floating-point exceptions are signalling: IEEE_INVALID_FLAG IEEE_UNDERFLOW_FLAG IEEE_DENORMAL
Note: The following floating-point exceptions are signalling: IEEE_INVALID_FLAG IEEE_UNDERFLOW_FLAG IEEE_DENORMAL
Note: The following floating-point exceptions are signalling: IEEE_INVALID_FLAG IEEE_UNDERFLOW_FLAG IEEE_DENORMAL
Note: The following floating-point exceptions are signalling: IEEE_INVALID_FLAG IEEE_UNDERFLOW_FLAG IEEE_DENORMAL
Note: The following floating-point exceptions are signalling: IEEE_INVALID_FLAG IEEE_UNDERFLOW_FLAG IEEE_DENORMAL
Note: The following floating-point exceptions are signalling: IEEE_INVALID_FLAG IEEE_UNDERFLOW_FLAG IEEE_DENORMAL
Note: The following floating-point exceptions are signalling: IEEE_INVALID_FLAG IEEE_UNDERFLOW_FLAG IEEE_DENORMAL
Note: The following floating-point exceptions are signalling: IEEE_INVALID_FLAG IEEE_UNDERFLOW_FLAG IEEE_DENORMAL
Note: The following floating-point exceptions are signalling: IEEE_INVALID_FLAG IEEE_UNDERFLOW_FLAG IEEE_DENORMAL
Note: The following floating-point exceptions are signalling: IEEE_INVALID_FLAG IEEE_UNDERFLOW_FLAG IEEE_DENORMAL
Note: The following floating-point exceptions are signalling: IEEE_INVALID_FLAG IEEE_UNDERFLOW_FLAG IEEE_DENORMAL
Note: The following floating-point exceptions are signalling: IEEE_INVALID_FLAG IEEE_UNDERFLOW_FLAG IEEE_DENORMAL
Note: The following floating-point exceptions are signalling: IEEE_INVALID_FLAG IEEE_UNDERFLOW_FLAG IEEE_DENORMAL
Note: The following floating-point exceptions are signalling: IEEE_INVALID_FLAG IEEE_UNDERFLOW_FLAG IEEE_DENORMAL
Note: The following floating-point exceptions are signalling: IEEE_INVALID_FLAG IEEE_UNDERFLOW_FLAG IEEE_DENORMAL
Note: The following floating-point exceptions are signalling: IEEE_INVALID_FLAG IEEE_UNDERFLOW_FLAG IEEE_DENORMAL
Note: The following floating-point exceptions are signalling: IEEE_INVALID_FLAG IEEE_UNDERFLOW_FLAG IEEE_DENORMAL
Note: The following floating-point exceptions are signalling: IEEE_INVALID_FLAG IEEE_UNDERFLOW_FLAG IEEE_DENORMAL
Note: The following floating-point exceptions are signalling: IEEE_INVALID_FLAG IEEE_UNDERFLOW_FLAG IEEE_DENORMAL
Note: The following floating-point exceptions are signalling: IEEE_INVALID_FLAG IEEE_UNDERFLOW_FLAG IEEE_DENORMAL
Note: The following floating-point exceptions are signalling: IEEE_INVALID_FLAG IEEE_UNDERFLOW_FLAG IEEE_DENORMAL
Note: The following floating-point exceptions are signalling: IEEE_INVALID_FLAG IEEE_UNDERFLOW_FLAG IEEE_DENORMAL
Note: The following floating-point exceptions are signalling: IEEE_INVALID_FLAG IEEE_UNDERFLOW_FLAG IEEE_DENORMAL
Note: The following floating-point exceptions are signalling: IEEE_INVALID_FLAG IEEE_UNDERFLOW_FLAG IEEE_DENORMAL
Note: The following floating-point exceptions are signalling: IEEE_INVALID_FLAG IEEE_UNDERFLOW_FLAG IEEE_DENORMAL
Note: The following floating-point exceptions are signalling: IEEE_INVALID_FLAG IEEE_UNDERFLOW_FLAG IEEE_DENORMAL
Note: The following floating-point exceptions are signalling: IEEE_INVALID_FLAG IEEE_UNDERFLOW_FLAG IEEE_DENORMAL
Note: The following floating-point exceptions are signalling: IEEE_INVALID_FLAG IEEE_UNDERFLOW_FLAG IEEE_DENORMAL
Note: The following floating-point exceptions are signalling: IEEE_INVALID_FLAG IEEE_UNDERFLOW_FLAG IEEE_DENORMAL
Note: The following floating-point exceptions are signalling: IEEE_INVALID_FLAG IEEE_UNDERFLOW_FLAG IEEE_DENORMAL
Note: The following floating-point exceptions are signalling: IEEE_INVALID_FLAG IEEE_UNDERFLOW_FLAG IEEE_DENORMAL
Note: The following floating-point exceptions are signalling: IEEE_INVALID_FLAG IEEE_UNDERFLOW_FLAG IEEE_DENORMAL
Note: The following floating-point exceptions are signalling: IEEE_INVALID_FLAG IEEE_UNDERFLOW_FLAG IEEE_DENORMAL
Note: The following floating-point exceptions are signalling: IEEE_INVALID_FLAG IEEE_UNDERFLOW_FLAG IEEE_DENORMAL
Note: The following floating-point exceptions are signalling: IEEE_INVALID_FLAG IEEE_UNDERFLOW_FLAG IEEE_DENORMAL
Note: The following floating-point exceptions are signalling: IEEE_INVALID_FLAG IEEE_UNDERFLOW_FLAG IEEE_DENORMAL
Note: The following floating-point exceptions are signalling: IEEE_INVALID_FLAG IEEE_UNDERFLOW_FLAG IEEE_DENORMAL
Note: The following floating-point exceptions are signalling: IEEE_INVALID_FLAG IEEE_UNDERFLOW_FLAG IEEE_DENORMAL
Note: The following floating-point exceptions are signalling: IEEE_INVALID_FLAG IEEE_UNDERFLOW_FLAG IEEE_DENORMAL
Note: The following floating-point exceptions are signalling: IEEE_INVALID_FLAG IEEE_UNDERFLOW_FLAG IEEE_DENORMAL
Note: The following floating-point exceptions are signalling: IEEE_INVALID_FLAG IEEE_UNDERFLOW_FLAG IEEE_DENORMAL
Note: The following floating-point exceptions are signalling: IEEE_INVALID_FLAG IEEE_UNDERFLOW_FLAG IEEE_DENORMAL
Note: The following floating-point exceptions are signalling: IEEE_INVALID_FLAG IEEE_UNDERFLOW_FLAG IEEE_DENORMAL
Note: The following floating-point exceptions are signalling: IEEE_INVALID_FLAG IEEE_UNDERFLOW_FLAG IEEE_DENORMAL
Note: The following floating-point exceptions are signalling: IEEE_INVALID_FLAG IEEE_UNDERFLOW_FLAG IEEE_DENORMAL
Note: The following floating-point exceptions are signalling: IEEE_INVALID_FLAG IEEE_UNDERFLOW_FLAG IEEE_DENORMAL
Note: The following floating-point exceptions are signalling: IEEE_INVALID_FLAG IEEE_UNDERFLOW_FLAG IEEE_DENORMAL
Note: The following floating-point exceptions are signalling: IEEE_INVALID_FLAG IEEE_UNDERFLOW_FLAG IEEE_DENORMAL
Note: The following floating-point exceptions are signalling: IEEE_INVALID_FLAG IEEE_UNDERFLOW_FLAG IEEE_DENORMAL
Note: The following floating-point exceptions are signalling: IEEE_INVALID_FLAG IEEE_UNDERFLOW_FLAG IEEE_DENORMAL
Note: The following floating-point exceptions are signalling: IEEE_INVALID_FLAG IEEE_UNDERFLOW_FLAG IEEE_DENORMAL
Note: The following floating-point exceptions are signalling: IEEE_INVALID_FLAG IEEE_UNDERFLOW_FLAG IEEE_DENORMAL
Note: The following floating-point exceptions are signalling: IEEE_INVALID_FLAG IEEE_UNDERFLOW_FLAG IEEE_DENORMAL
Note: The following floating-point exceptions are signalling: IEEE_INVALID_FLAG IEEE_UNDERFLOW_FLAG IEEE_DENORMAL
Note: The following floating-point exceptions are signalling: IEEE_INVALID_FLAG IEEE_UNDERFLOW_FLAG IEEE_DENORMAL
Note: The following floating-point exceptions are signalling: IEEE_INVALID_FLAG IEEE_UNDERFLOW_FLAG IEEE_DENORMAL
Note: The following floating-point exceptions are signalling: IEEE_INVALID_FLAG IEEE_UNDERFLOW_FLAG IEEE_DENORMAL
Note: The following floating-point exceptions are signalling: IEEE_INVALID_FLAG IEEE_UNDERFLOW_FLAG IEEE_DENORMAL
Note: The following floating-point exceptions are signalling: IEEE_INVALID_FLAG IEEE_UNDERFLOW_FLAG IEEE_DENORMAL
Note: The following floating-point exceptions are signalling: IEEE_INVALID_FLAG IEEE_UNDERFLOW_FLAG IEEE_DENORMAL
Note: The following floating-point exceptions are signalling: IEEE_INVALID_FLAG IEEE_UNDERFLOW_FLAG IEEE_DENORMAL
Note: The following floating-point exceptions are signalling: IEEE_INVALID_FLAG IEEE_UNDERFLOW_FLAG IEEE_DENORMAL
Note: The following floating-point exceptions are signalling: IEEE_INVALID_FLAG IEEE_UNDERFLOW_FLAG IEEE_DENORMAL
Note: The following floating-point exceptions are signalling: IEEE_INVALID_FLAG IEEE_UNDERFLOW_FLAG IEEE_DENORMAL
Note: The following floating-point exceptions are signalling: IEEE_INVALID_FLAG IEEE_UNDERFLOW_FLAG IEEE_DENORMAL
Note: The following floating-point exceptions are signalling: IEEE_INVALID_FLAG IEEE_UNDERFLOW_FLAG IEEE_DENORMAL
Note: The following floating-point exceptions are signalling: IEEE_INVALID_FLAG IEEE_UNDERFLOW_FLAG IEEE_DENORMAL
Note: The following floating-point exceptions are signalling: IEEE_INVALID_FLAG IEEE_UNDERFLOW_FLAG IEEE_DENORMAL
Note: The following floating-point exceptions are signalling: IEEE_INVALID_FLAG IEEE_UNDERFLOW_FLAG IEEE_DENORMAL
Note: The following floating-point exceptions are signalling: IEEE_INVALID_FLAG IEEE_UNDERFLOW_FLAG IEEE_DENORMAL
Note: The following floating-point exceptions are signalling: IEEE_INVALID_FLAG IEEE_UNDERFLOW_FLAG IEEE_DENORMAL
Note: The following floating-point exceptions are signalling: IEEE_INVALID_FLAG IEEE_UNDERFLOW_FLAG IEEE_DENORMAL
Note: The following floating-point exceptions are signalling: IEEE_INVALID_FLAG IEEE_UNDERFLOW_FLAG IEEE_DENORMAL
Note: The following floating-point exceptions are signalling: IEEE_INVALID_FLAG IEEE_UNDERFLOW_FLAG IEEE_DENORMAL
Note: The following floating-point exceptions are signalling: IEEE_INVALID_FLAG IEEE_UNDERFLOW_FLAG IEEE_DENORMAL
Note: The following floating-point exceptions are signalling: IEEE_INVALID_FLAG IEEE_UNDERFLOW_FLAG IEEE_DENORMAL
Note: The following floating-point exceptions are signalling: IEEE_INVALID_FLAG IEEE_UNDERFLOW_FLAG IEEE_DENORMAL
Note: The following floating-point exceptions are signalling: IEEE_INVALID_FLAG IEEE_UNDERFLOW_FLAG IEEE_DENORMAL
Note: The following floating-point exceptions are signalling: IEEE_INVALID_FLAG IEEE_UNDERFLOW_FLAG IEEE_DENORMAL
Note: The following floating-point exceptions are signalling: IEEE_INVALID_FLAG IEEE_UNDERFLOW_FLAG IEEE_DENORMAL
Note: The following floating-point exceptions are signalling: IEEE_INVALID_FLAG IEEE_UNDERFLOW_FLAG IEEE_DENORMAL
Note: The following floating-point exceptions are signalling: IEEE_INVALID_FLAG IEEE_UNDERFLOW_FLAG IEEE_DENORMAL
Note: The following floating-point exceptions are signalling: IEEE_INVALID_FLAG IEEE_UNDERFLOW_FLAG IEEE_DENORMAL
Note: The following floating-point exceptions are signalling: IEEE_INVALID_FLAG IEEE_UNDERFLOW_FLAG IEEE_DENORMAL
Note: The following floating-point exceptions are signalling: IEEE_INVALID_FLAG IEEE_UNDERFLOW_FLAG IEEE_DENORMAL
Note: The following floating-point exceptions are signalling: IEEE_INVALID_FLAG IEEE_UNDERFLOW_FLAG IEEE_DENORMAL
Note: The following floating-point exceptions are signalling: IEEE_INVALID_FLAG IEEE_UNDERFLOW_FLAG IEEE_DENORMAL
Note: The following floating-point exceptions are signalling: IEEE_INVALID_FLAG IEEE_UNDERFLOW_FLAG IEEE_DENORMAL
Note: The following floating-point exceptions are signalling: IEEE_INVALID_FLAG IEEE_UNDERFLOW_FLAG IEEE_DENORMAL
Note: The following floating-point exceptions are signalling: IEEE_INVALID_FLAG IEEE_UNDERFLOW_FLAG IEEE_DENORMAL
Note: The following floating-point exceptions are signalling: IEEE_INVALID_FLAG IEEE_UNDERFLOW_FLAG IEEE_DENORMAL
Note: The following floating-point exceptions are signalling: IEEE_INVALID_FLAG IEEE_UNDERFLOW_FLAG IEEE_DENORMAL
Note: The following floating-point exceptions are signalling: IEEE_INVALID_FLAG IEEE_UNDERFLOW_FLAG IEEE_DENORMAL
Note: The following floating-point exceptions are signalling: IEEE_INVALID_FLAG IEEE_UNDERFLOW_FLAG IEEE_DENORMAL
Note: The following floating-point exceptions are signalling: IEEE_INVALID_FLAG IEEE_UNDERFLOW_FLAG IEEE_DENORMAL
Note: The following floating-point exceptions are signalling: IEEE_INVALID_FLAG IEEE_UNDERFLOW_FLAG IEEE_DENORMAL
Note: The following floating-point exceptions are signalling: IEEE_INVALID_FLAG IEEE_UNDERFLOW_FLAG IEEE_DENORMAL
Note: The following floating-point exceptions are signalling: IEEE_INVALID_FLAG IEEE_UNDERFLOW_FLAG IEEE_DENORMAL
Note: The following floating-point exceptions are signalling: IEEE_INVALID_FLAG IEEE_UNDERFLOW_FLAG IEEE_DENORMAL
Note: The following floating-point exceptions are signalling: IEEE_INVALID_FLAG IEEE_UNDERFLOW_FLAG IEEE_DENORMAL
Note: The following floating-point exceptions are signalling: IEEE_INVALID_FLAG IEEE_UNDERFLOW_FLAG IEEE_DENORMAL
Note: The following floating-point exceptions are signalling: IEEE_INVALID_FLAG IEEE_UNDERFLOW_FLAG IEEE_DENORMAL
Note: The following floating-point exceptions are signalling: IEEE_INVALID_FLAG IEEE_UNDERFLOW_FLAG IEEE_DENORMAL
Note: The following floating-point exceptions are signalling: IEEE_INVALID_FLAG IEEE_UNDERFLOW_FLAG IEEE_DENORMAL
Note: The following floating-point exceptions are signalling: IEEE_INVALID_FLAG IEEE_UNDERFLOW_FLAG IEEE_DENORMAL
Note: The following floating-point exceptions are signalling: IEEE_INVALID_FLAG IEEE_UNDERFLOW_FLAG IEEE_DENORMAL
Note: The following floating-point exceptions are signalling: IEEE_INVALID_FLAG IEEE_UNDERFLOW_FLAG IEEE_DENORMAL
Note: The following floating-point exceptions are signalling: IEEE_INVALID_FLAG IEEE_UNDERFLOW_FLAG IEEE_DENORMAL
Note: The following floating-point exceptions are signalling: IEEE_INVALID_FLAG IEEE_UNDERFLOW_FLAG IEEE_DENORMAL
Note: The following floating-point exceptions are signalling: IEEE_INVALID_FLAG IEEE_UNDERFLOW_FLAG IEEE_DENORMAL
Note: The following floating-point exceptions are signalling: IEEE_INVALID_FLAG IEEE_UNDERFLOW_FLAG IEEE_DENORMAL
Note: The following floating-point exceptions are signalling: IEEE_INVALID_FLAG IEEE_UNDERFLOW_FLAG IEEE_DENORMAL
Note: The following floating-point exceptions are signalling: IEEE_INVALID_FLAG IEEE_UNDERFLOW_FLAG IEEE_DENORMAL
Note: The following floating-point exceptions are signalling: IEEE_INVALID_FLAG IEEE_UNDERFLOW_FLAG IEEE_DENORMAL
Note: The following floating-point exceptions are signalling: IEEE_INVALID_FLAG IEEE_UNDERFLOW_FLAG IEEE_DENORMAL
Note: The following floating-point exceptions are signalling: IEEE_INVALID_FLAG IEEE_UNDERFLOW_FLAG IEEE_DENORMAL
