LAMMPS (7 Aug 2019)
  using 1 OpenMP thread(s) per MPI task
# Input written to comply with LAMMPS 2017-08-11 00:00:00

# Atomic Configuration
units           metal
boundary        p p p
box tilt large
atom_style      charge
read_data       8x8x8.lmp
  triclinic box = (0 0 0) to (82.2424 82.5065 82.2968) with tilt (-0.0846491 -0.260726 -0.235925)
  4 by 8 by 5 MPI processor grid
  reading atoms ...
  27648 atoms
  read_data CPU = 0.0458341 secs
group           lithium type 1
8704 atoms in group lithium
group           scandium type 2
2560 atoms in group scandium
group           chloride type 3
16384 atoms in group chloride
variable        T1 equal 300
variable        dt equal 0.001

# Potential Setup
pair_style  buck/coul/long 12.0
pair_coeff * * 0.0 1.0 0.0
pair_coeff 1 1     360.530000  0.161000   0.000000 # Li Li
pair_coeff 1 3     421.040000  0.344000   0.000000 # Li Cl
pair_coeff 3 3    1227.200000  0.321000  14.530000 # Cl Cl
pair_coeff 2 3   12131.350000  0.250700   0.000000 # Sc Cl

kspace_style pppm 1e-05

# General Setup
timestep        0.001

# Thermodynamic Information Output
thermo_style custom step temp epair emol etotal press lx ly lz fmax cpu cpuremain
thermo          1000

# Intial Atom Velocity
velocity all create ${T1} 80800 dist gaussian rot yes
velocity all create 300 80800 dist gaussian rot yes

# Stage 0: npt_equilibriation
restart         0
fix             int all npt aniso 1.0 1.0 0.1 temp ${T1} ${T1} $(100*dt)
fix             int all npt aniso 1.0 1.0 0.1 temp 300 ${T1} $(100*dt)
fix             int all npt aniso 1.0 1.0 0.1 temp 300 300 $(100*dt)
fix             int all npt aniso 1.0 1.0 0.1 temp 300 300 0.10000000000000000555
run             50000
PPPM initialization ...
  using 12-bit tables for long-range coulomb (../kspace.cpp:323)
  G vector (1/distance) = 0.266087
  grid = 72 75 72
  stencil order = 5
  estimated absolute RMS force accuracy = 0.000168694
  estimated relative force accuracy = 1.17151e-05
  using double precision MKL FFT
  3d grid and FFT values/proc = 8925 2880
Neighbor list info ...
  update every 1 steps, delay 10 steps, check yes
  max neighbors/atom: 2000, page size: 100000
  master list distance cutoff = 14
  ghost atom cutoff = 14
  binsize = 7, bins = 12 12 12
  1 neighbor lists, perpetual/occasional/extra = 1 0 0
  (1) pair buck/coul/long, perpetual
      attributes: half, newton on
      pair build: half/bin/newton/tri
      stencil: half/bin/3d/newton/tri
      bin: standard
Per MPI rank memory allocation (min/avg/max) = 4.024 | 4.083 | 4.145 Mbytes
Step Temp E_pair E_mol TotEng Press Lx Ly Lz Fmax CPU CPULeft 
       0          300   -186972.57            0   -185900.47   -735.47027    82.242362    82.506461    82.296819     2.700569            0            0 
    1000      298.514   -192735.68            0   -191668.89    25.208045    89.054435    89.487619     89.95908    3.5137998     5.585403    273.68479 
    2000    300.74805   -192886.26            0    -191811.5   -31.167196    88.525229    89.933542    89.477319    3.1972582    11.387704    273.30492 
    3000    299.43246    -192994.1            0   -191924.03   -29.437232    88.397579    89.839049    89.266751    3.0655445    17.548617    274.92835 
    4000    301.94016    -193043.4            0   -191964.37    113.50219    88.243247    90.052191    89.257128    3.5847773    23.423974    269.37571 
    5000    301.94732   -193091.63            0   -192012.57   -26.980806    88.301695    90.035545    89.125109    3.0231108    29.153235    262.37912 
    6000    300.07779   -193108.15            0   -192035.77   -86.906097    88.323808    89.793629    89.100821    3.3692047    34.830418    255.42307 
    7000    299.91236   -193137.92            0   -192066.14   -8.8533773    88.222088    89.889703    89.127851    3.2377374    40.501115    248.79257 
    8000    304.37484   -193149.06            0   -192061.33    58.515633    88.315431    89.741084    89.065363    3.1790913    46.201983    242.56041 
    9000    298.53882   -193171.21            0   -192104.34   -14.935043    88.320945    89.866274    89.083993    3.1834543    52.165694    237.64372 
   10000     301.7936   -193166.49            0   -192087.99   -61.092956    88.322367    89.816468    89.055209    3.1440405    58.192259    232.76904 
   11000    298.81177   -193193.79            0   -192125.94   -1.8380397    88.272206    89.865936     88.93496    3.5157264    63.838762    226.33743 
   12000    301.11037   -193201.34            0   -192125.28    48.972104    88.349473    89.857625    88.786803    2.9202547    69.904568    221.36447 
   13000    300.62383   -193205.75            0   -192131.43   -12.643757    88.340439    89.715042    88.822833    3.4969909    75.634931    215.26865 
   14000    300.59991   -193214.01            0   -192139.77   -55.994845    88.303077    89.760524    88.799745    3.6358115     81.30697    209.07507 
   15000    297.19644   -193231.37            0   -192169.29    28.791353    88.193282    89.703108    88.986917     2.876567    86.908231    202.78587 
   16000    301.14481   -193221.69            0    -192145.5   -11.204076    88.187254    89.888909    88.808016    2.8285733    92.811337    197.22409 
   17000    299.92234   -193240.59            0   -192168.77   -52.428525    88.132583    89.997864     88.76727    3.8793373    98.805805    191.79951 
   18000    299.91935   -193250.92            0   -192179.11    34.313122    88.051234    89.984122    88.763101    3.4489982    104.52967    185.83052 
   19000    300.21537   -193253.84            0   -192180.98     88.21727    88.036832    90.019743    88.838464    3.0759108     110.4333    180.18065 
   20000    300.25058   -193259.57            0   -192186.58   -16.410696    88.125456    90.054265    88.640011    2.9126914    116.00868    174.01303 
   21000    299.84284   -193262.54            0      -192191   -90.466366    88.156907    90.011008    88.776768    2.7149555    121.72125    168.09126 
   22000    301.86565   -193269.77            0   -192191.01    25.489962    87.949187    90.102784    88.710461    3.2519729    127.05374    161.70476 
   23000    301.37256   -193269.75            0   -192192.75    137.26217    87.975206    89.987376    88.760335    2.8728469    132.96257    156.08649 
   24000    300.25531   -193277.31            0    -192204.3   -31.474407    88.068863    90.032193    88.700496     3.635771    138.93234    150.51004 
   25000    299.09548   -193272.64            0   -192203.78   -262.71315    88.104589    89.941406    88.797795    2.9066832     144.7132     144.7132 
   26000    300.75907   -193282.98            0   -192208.17    22.011412    87.987802    90.219483    88.615759    3.2430944    150.62356    139.03713 
   27000      297.789    -193284.4            0    -192220.2    215.07111    88.038802    90.020474    88.677017    2.8880809    156.14461    133.01208 
   28000    300.40041   -193299.82            0   -192226.29   -20.731075    88.027833    90.015377     88.72646    2.9775104    161.51366    126.90359 
   29000    301.16988   -193303.19            0   -192226.92   -239.58299    87.921819    90.109655    88.689542    2.8862638    166.99511    120.92749 
   30000    298.21327    -193309.5            0   -192243.79   -30.992574    87.970252    90.071162    88.693745    2.9767046    172.98925    115.32617 
   31000    296.63528   -193307.58            0   -192247.51    296.03384    87.915488    90.063246    88.671702    2.8010761    178.96907    109.69072 
   32000    301.81937    -193304.9            0    -192226.3    47.057782    88.032489     89.99497    88.705711    3.2326597    184.68546    103.88557 
   33000     300.4685    -193318.7            0   -192244.93   -242.48328    88.028609    90.114033    88.688397    3.0966801    190.54326     98.15865 
   34000    302.03836   -193319.11            0   -192239.73    -57.94243    87.890198    90.156571    88.729149    3.4779777    196.01702    92.243306 
   35000    300.51851   -193325.02            0   -192251.07    300.66909    87.811722    90.061935    88.721361    3.4751988    201.54272    86.375453 
   36000    300.58389   -193330.69            0    -192256.5    59.044797     87.85125    90.182882    88.701643    3.2924691    207.14414    80.556055 
   37000     297.5576   -193318.65            0   -192255.28   -257.60246    87.924788    90.216009    88.682736    2.9322232    213.10529    74.874833 
   38000    298.34614    -193340.9            0   -192274.72   -31.467436    87.796474    90.132565    88.719623    3.0800297    219.10771    69.191908 
   39000    299.78332    -193326.3            0   -192254.98    366.90607     87.87772    90.163394     88.59743    3.2307614    224.75544    63.392559 
   40000    300.28872   -193337.43            0   -192264.31    104.26954    87.941918     90.06414    88.631374    3.0009123    230.62152     57.65538 
   41000    298.26549   -193340.62            0   -192274.72   -156.20895    87.893572    90.133841    88.679692    3.1740783    236.11497    51.830115 
   42000    301.20349   -193336.55            0   -192260.15   -114.20283    87.896804    90.158652    88.562408    3.1370852     241.7167    46.041277 
   43000    299.03402   -193334.96            0   -192266.32    187.29713    87.822864    90.195774    88.507792     3.080937     247.2976    40.257749 
   44000     298.5821   -193346.96            0   -192279.93    159.82703    87.792614    90.131718    88.623423     3.125298    253.33882    34.546202 
   45000    301.10898   -193337.73            0   -192261.68   -184.77791    87.885245    90.157883    88.637181     3.208927    259.06017    28.784463 
   46000    300.92859   -193350.94            0   -192275.53   -89.609375    87.924359    90.127344    88.543214    3.2635883    264.85427    23.030806 
   47000    299.89056   -193346.37            0   -192274.67      66.6364    87.801759    90.209666     88.57025    2.9411722    270.73559    17.280995 
   48000    300.09906   -193357.58            0   -192285.13    114.98198    87.732664    90.292049    88.582421    2.8293126    276.40921    11.517051 
   49000    299.50356   -193355.54            0   -192285.22    9.0822805      87.7956    90.119223    88.694043    3.4730809    281.97901    5.7546736 
   50000    301.26542    -193364.5            0   -192287.88   -68.845109    87.796288    90.132245    88.647981    3.6877392    287.42904            0 
Loop time of 287.429 on 160 procs for 50000 steps with 27648 atoms

Performance: 15.030 ns/day, 1.597 hours/ns, 173.956 timesteps/s
99.0% CPU use with 160 MPI tasks x 1 OpenMP threads

MPI task timing breakdown:
Section |  min time  |  avg time  |  max time  |%varavg| %total
---------------------------------------------------------------
Pair    | 48.439     | 53.328     | 57.524     |  24.9 | 18.55
Kspace  | 163.65     | 168.46     | 173.24     |  15.8 | 58.61
Neigh   | 1.5816     | 1.7451     | 1.8741     |   4.1 |  0.61
Comm    | 31.465     | 34.826     | 38.344     |  26.8 | 12.12
Output  | 0.0034621  | 0.0035107  | 0.0046446  |   0.2 |  0.00
Modify  | 18.508     | 22.485     | 26.569     |  49.0 |  7.82
Other   |            | 6.584      |            |       |  2.29

Nlocal:    172.8 ave 191 max 156 min
Histogram: 1 3 25 20 43 25 22 12 7 2
Nghost:    3367.89 ave 3425 max 3318 min
Histogram: 6 16 26 16 24 26 16 14 9 7
Neighs:    39016.1 ave 43068 max 34481 min
Histogram: 2 2 10 29 36 33 15 19 9 5

Total # of neighbors = 6242571
Ave neighs/atom = 225.787
Neighbor list builds = 1237
Dangerous builds = 14

# Stage 1: nvt_equilibriation
unfix int
restart         0
fix             int all nvt temp ${T1} ${T1} $(100*dt)
fix             int all nvt temp 300 ${T1} $(100*dt)
fix             int all nvt temp 300 300 $(100*dt)
fix             int all nvt temp 300 300 0.10000000000000000555
run             10000000
PPPM initialization ...
  using 12-bit tables for long-range coulomb (../kspace.cpp:323)
  G vector (1/distance) = 0.265436
  grid = 75 80 80
  stencil order = 5
  estimated absolute RMS force accuracy = 0.000157035
  estimated relative force accuracy = 1.09055e-05
  using double precision MKL FFT
  3d grid and FFT values/proc = 10166 3040
Per MPI rank memory allocation (min/avg/max) = 4.142 | 4.281 | 4.547 Mbytes
Step Temp E_pair E_mol TotEng Press Lx Ly Lz Fmax CPU CPULeft 
   50000    301.26542   -193364.48            0   -192287.86   -68.495482    87.796288    90.132245    88.647981    3.6881004            0            0 
   51000    303.79138   -193363.79            0   -192278.15    -130.3978    87.796288    90.132245    88.647981    2.8856508    5.5402341    55396.801 
   52000    297.73562   -193357.97            0   -192293.96    89.770129    87.796288    90.132245    88.647981    2.8082953     11.42625    57119.828 
   53000    301.83878    -193368.5            0   -192289.84   -137.74254    87.796288    90.132245    88.647981      2.87603    17.037671    56775.202 
   54000    301.19661   -193361.43            0   -192285.06   -14.090361    87.796288    90.132245    88.647981    2.8600557    22.826458    57043.321 
   55000    299.00209   -193370.69            0   -192302.16    -93.34361    87.796288    90.132245    88.647981    2.8588461    28.268992    56509.717 
   56000    302.25647   -193371.52            0   -192291.36   -87.140652    87.796288    90.132245    88.647981    3.7145883    33.815405    56325.193 
   57000    301.62122   -193371.82            0   -192293.93   -31.551872    87.796288    90.132245    88.647981    3.2945487    39.194393    55952.797 
   58000    300.70521   -193376.88            0   -192302.27    3.3391531    87.796288    90.132245    88.647981    3.0486909    44.863274    56034.231 
   59000    300.40138   -193380.51            0   -192306.98    5.6817613    87.796288    90.132245    88.647981    3.1741407    50.725485    56310.926 
   60000    299.77711   -193391.29            0   -192319.99   -1.9750921    87.796288    90.132245    88.647981    3.0040097    56.320571    56264.252 
   61000    300.28878   -193384.69            0   -192311.56   -204.32397    87.796288    90.132245    88.647981    3.4279394    62.034909    56333.338 
   62000     300.5416      -193377            0   -192302.97   -191.88404    87.796288    90.132245    88.647981    3.0013928     67.46625     56154.41 
   63000    299.59413   -193385.96            0   -192315.31   -325.66758    87.796288    90.132245    88.647981    3.4323749    72.716874    55863.341 
   64000    300.93187   -193378.06            0   -192302.64   -130.71504    87.796288    90.132245    88.647981    2.8518942    78.156887    55748.191 
   65000    299.20009   -193390.49            0   -192321.25   -465.32295    87.796288    90.132245    88.647981    3.2331424    83.773205    55765.031 
   66000    300.96103   -193401.58            0   -192326.05   -164.22478    87.796288    90.132245    88.647981    3.4997025    89.750113    56004.071 
   67000    301.17523   -193397.36            0   -192321.06   -153.69345    87.796288    90.132245    88.647981    3.0585659    95.416007    56031.647 
   68000    298.72297   -193396.96            0   -192329.43   -335.22237    87.796288    90.132245    88.647981    3.0248729    100.99602    56007.902 
   69000    300.98339   -193399.42            0   -192323.81   -515.33797    87.796288    90.132245    88.647981    3.2603444    106.42552    55907.005 
   70000    300.57963   -193407.56            0   -192333.39   -538.62761    87.796288    90.132245    88.647981    3.2235149    111.91374    55844.957 
   71000    300.26027   -193393.55            0   -192320.52   -198.15279    87.796288    90.132245    88.647981    3.4437148    117.35769    55767.258 
   72000    298.60524   -193399.14            0   -192332.03    -203.0638    87.796288    90.132245    88.647981    3.3915835    122.90953    55745.058 
   73000    299.66725   -193391.31            0    -192320.4   -407.07957    87.796288    90.132245    88.647981    2.9364399    128.86467    55899.254 
   74000    300.34581   -193413.97            0   -192340.63   -496.49038    87.796288    90.132245    88.647981    3.0709019    134.51382    55912.911 
   75000    301.99738   -193410.07            0   -192330.84   -281.35997    87.796288    90.132245    88.647981      2.87214    139.92423    55829.768 
   76000    301.16998   -193417.29            0   -192341.01   -132.58389    87.796288    90.132245    88.647981    3.3758128    145.50399    55817.569 
   77000    299.90847   -193403.39            0   -192331.62   -150.17906    87.796288    90.132245    88.647981    3.1298488    151.16825    55837.071 
   78000    296.84239   -193405.68            0   -192344.87    45.606874    87.796288    90.132245    88.647981    3.7495021    156.78616    55838.273 
   79000    301.71027   -193407.65            0   -192329.44   -589.30379    87.796288    90.132245    88.647981    2.9777328    162.43978    55851.278 
   80000    300.93597   -193414.42            0   -192338.98    -312.9833    87.796288    90.132245    88.647981     2.965539    168.34024    55945.074 
   81000    301.90818    -193410.9            0   -192331.98   -383.91138    87.796288    90.132245    88.647981    3.1755611    174.10863    55989.967 
   82000    300.06822   -193419.69            0   -192347.35   -622.00064    87.796288    90.132245    88.647981    2.9823679    179.90066    56039.055 
   83000    300.19875   -193424.29            0   -192351.49   -379.65246    87.796288    90.132245    88.647981    2.8520817    185.58108     56051.11 
   84000    298.58186   -193413.11            0   -192346.08   -278.93055    87.796288    90.132245    88.647981    2.9271177     191.1561    56031.227 
   85000    298.99568   -193414.35            0   -192345.84   -263.65444    87.796288    90.132245    88.647981    3.5378544     196.5668    55965.376 
   86000    299.50365   -193421.36            0   -192351.04   -501.56741    87.796288    90.132245    88.647981    3.2910442    201.81409    55857.656 
   87000    301.72154   -193424.73            0   -192346.48   -370.49952    87.796288    90.132245    88.647981    2.9269339    207.61376    55904.213 
   88000    295.86177   -193424.69            0   -192367.38    -797.5152    87.796288    90.132245    88.647981    3.2178394    213.35128    55931.724 
   89000    299.22348    -193423.5            0   -192354.18   -356.87251    87.796288    90.132245    88.647981    2.8384906    218.99733    55934.163 
   90000    301.18006   -193430.36            0   -192354.05   -454.96059    87.796288    90.132245    88.647981    3.4896779    224.60772    55927.322 
   91000     299.6516   -193426.37            0   -192355.52   -249.31161    87.796288    90.132245    88.647981    3.5604947     230.0843    55888.037 
   92000    299.88149   -193429.71            0   -192358.03   -372.31122    87.796288    90.132245    88.647981    2.8828203    235.32817    55795.188 
   93000    297.93071   -193430.52            0   -192365.82   -420.65126    87.796288    90.132245    88.647981    2.8257377    240.86248    55773.668 
   94000    300.85016   -193432.06            0   -192356.93    -726.2084    87.796288    90.132245    88.647981    3.5897564    246.68237    55817.494 
   95000    300.05402   -193435.25            0   -192362.96   -548.52077    87.796288    90.132245    88.647981    3.2246794    252.46911    55851.778 
   96000    297.79172   -193434.42            0   -192370.22   -830.18569    87.796288    90.132245    88.647981    3.0200879    258.01067    55831.266 
   97000    301.60618   -193435.96            0   -192358.13   -545.91794    87.796288    90.132245    88.647981    3.0394325    263.78317    55860.297 
   98000    299.89218   -193440.06            0   -192368.35   -379.82625    87.796288    90.132245    88.647981    3.2141058    268.97102    55766.659 
   99000    300.42369   -193438.23            0   -192364.62   -410.20462    87.796288    90.132245    88.647981    2.7535904    274.48557    55742.977 
  100000     302.5798   -193440.28            0   -192358.96   -509.88163    87.796288    90.132245    88.647981     3.920587    279.97604    55715.232 
  101000    299.37109   -193434.83            0   -192364.98   -470.47447    87.796288    90.132245    88.647981    3.0290988     285.6198    55718.262 
  102000    298.66986   -193443.99            0   -192376.65   -778.25676    87.796288    90.132245    88.647981    3.0988428    291.47921    55762.215 
  103000    300.83663   -193440.01            0   -192364.92    -491.5182    87.796288    90.132245    88.647981    3.4424787    297.16444    55771.598 
  104000    299.98102   -193449.68            0   -192377.65   -603.15909    87.796288    90.132245    88.647981    3.3377358    302.65261    55744.127 
  105000    299.56521   -193434.63            0   -192364.09   -621.07442    87.796288    90.132245    88.647981    3.1555986    308.14504    55718.227 
  106000     299.0459   -193444.95            0   -192376.26   -451.58535    87.796288    90.132245    88.647981    3.3573339    313.61162    55688.464 
  107000      303.081   -193447.05            0   -192363.94   -754.71598    87.796288    90.132245    88.647981    3.1911946    319.10013    55663.379 
  108000    299.24529   -193449.61            0   -192380.21   -468.09609    87.796288    90.132245    88.647981    3.2369783      324.704    55658.744 
  109000    302.21323   -193443.11            0   -192363.11   -564.82259    87.796288    90.132245    88.647981    3.2640298    330.47901    55682.913 
  110000    299.95081   -193457.42            0    -192385.5   -601.89037    87.796288    90.132245    88.647981    3.7570494    335.74343    55621.495 
  111000    300.87017   -193443.59            0   -192368.38   -581.66637    87.796288    90.132245    88.647981    3.2319441    341.29534    55608.761 
  112000    299.64136   -193457.78            0   -192386.96      -241.97    87.796288    90.132245    88.647981    3.6271712    346.79119    55587.272 
  113000    302.20738   -193456.49            0    -192376.5   -497.44552    87.796288    90.132245    88.647981    3.1668888    352.27828     55564.91 
  114000    299.80715   -193458.56            0   -192387.15   -477.02029    87.796288    90.132245    88.647981    3.3662332    357.79248    55547.283 
  115000    298.63805   -193470.12            0   -192402.89   -716.51558    87.796288    90.132245    88.647981    2.8801271    363.09677    55497.945 
  116000    304.08342   -193460.02            0   -192373.34   -688.47869    87.796288    90.132245    88.647981     3.111661    368.87184    55520.801 
  117000    297.01145   -193463.52            0   -192402.11   -628.77694    87.796288    90.132245    88.647981     2.860849    374.34043    55497.365 
  118000     300.2171   -193462.49            0   -192389.62   -657.14608    87.796288    90.132245    88.647981    3.1797768    380.01627    55504.729 
  119000    300.40922   -193466.04            0   -192392.48   -379.63493    87.796288    90.132245    88.647981    3.1551875    385.81994    55530.114 
  120000    299.09082   -193456.94            0   -192388.09   -548.01247    87.796288    90.132245    88.647981    3.4944508    391.53412    55541.911 
  121000    300.41768   -193464.46            0   -192390.87   -826.40089    87.796288    90.132245    88.647981    3.7137776    397.09986    55532.458 
  122000    302.32369   -193453.92            0   -192373.52   -616.40576    87.796288    90.132245    88.647981     3.191459    402.48846    55498.686 
  123000    297.88591    -193465.7            0   -192401.15   -781.22768    87.796288    90.132245    88.647981    2.9117508    408.46369    55545.466 
  124000    299.85464   -193465.47            0   -192393.89   -485.86172    87.796288    90.132245    88.647981    3.3991764    414.22963    55562.747 
  125000    301.89709   -193473.09            0   -192394.21   -775.29108    87.796288    90.132245    88.647981     3.049158    419.83707    55558.439 
  126000    302.85917   -193467.89            0   -192385.58   -443.88872    87.796288    90.132245    88.647981    2.8568291    425.38504    55546.331 
  127000    298.40601    -193474.4            0      -192408   -708.41004    87.796288    90.132245    88.647981     3.484646    430.77158    55513.589 
  128000    300.46012   -193475.45            0   -192401.71   -722.01628    87.796288    90.132245    88.647981    2.9215029    436.04224    55466.809 
  129000    299.06869   -193470.91            0   -192402.14   -557.66706    87.796288    90.132245    88.647981    3.2264416    441.43707    55436.673 
  130000    303.22693   -193464.76            0   -192381.13   -834.06602    87.796288    90.132245    88.647981    2.8777833    447.21473    55454.626 
  131000    298.89756   -193480.33            0   -192412.17   -632.87577    87.796288    90.132245    88.647981    2.7487437    452.97934    55470.397 
  132000    300.70253   -193468.51            0    -192393.9   -659.08274    87.796288    90.132245    88.647981    3.1830909    458.55929    55463.306 
  133000    302.19379   -193484.67            0   -192404.74    -565.0244    87.796288    90.132245    88.647981    3.3148614     464.2625    55470.978 
  134000    298.82579   -193484.77            0   -192416.87     -687.538    87.796288    90.132245    88.647981     3.107959    469.34261    55404.778 
  135000    301.55508   -193481.46            0    -192403.8   -741.09849    87.796288    90.132245    88.647981    3.4753328    474.78349    55382.098 
  136000     299.5678    -193477.2            0   -192406.65   -543.66165    87.796288    90.132245    88.647981    3.5448988    480.21755    55359.032 
  137000    300.31916   -193485.05            0   -192411.81   -629.35516    87.796288    90.132245    88.647981    2.9653005    486.03857    55380.464 
  138000    298.04266   -193485.03            0   -192419.92   -751.18388    87.796288    90.132245    88.647981    3.1613081    491.81442    55396.188 
  139000    300.09649   -193479.48            0   -192407.04   -811.17895    87.796288    90.132245    88.647981    3.1821419    497.44337     55395.07 
  140000    301.12492   -193495.38            0   -192419.26   -735.90448    87.796288    90.132245    88.647981    3.0375964    502.93486    55378.716 
  141000    300.11264   -193493.43            0   -192420.93   -668.18569    87.796288    90.132245    88.647981    3.5193978    508.43907    55363.986 
  142000    300.99829   -193489.99            0   -192414.33   -742.56546    87.796288    90.132245    88.647981    3.1596551    513.87536    55342.143 
  143000    302.43714   -193484.92            0   -192404.12   -650.35833    87.796288    90.132245    88.647981    3.1868455    519.34002    55323.673 
  144000    303.65569   -193493.92            0   -192408.76   -626.76329    87.796288    90.132245    88.647981    2.7604888    525.04275    55330.569 
  145000    300.69865   -193491.57            0   -192416.98    -742.7672    87.796288    90.132245    88.647981    3.0015597    530.80652    55343.564 
  146000    299.34093   -193496.61            0   -192426.87    -543.3896    87.796288    90.132245    88.647981     3.017865    536.38768    55337.329 
  147000    298.17104   -193488.28            0   -192422.72   -578.81269    87.796288    90.132245    88.647981    2.8292993    542.18541    55353.218 
  148000    300.07701   -193501.88            0   -192429.51   -885.49619    87.796288    90.132245    88.647981    2.9907557    547.69769    55339.822 
  149000    301.00414   -193493.96            0   -192418.27   -531.35412    87.796288    90.132245    88.647981     2.825297    553.19315    55324.902 
  150000    299.42252   -193493.32            0   -192423.29   -711.50251    87.796288    90.132245    88.647981    3.2544732    558.64688    55306.042 
  151000    301.08218   -193512.56            0    -192436.6   -883.49349    87.796288    90.132245    88.647981    2.8010366    564.30832    55307.803 
  152000    300.56993   -193493.79            0   -192419.65   -681.45451    87.796288    90.132245    88.647981    3.0323815    570.14781    55326.697 
  153000    296.90795   -193504.96            0   -192443.91   -848.33403    87.796288    90.132245    88.647981     2.822914    575.76496    55323.746 
  154000    298.44065   -193500.45            0   -192433.93   -608.02511    87.796288    90.132245    88.647981    3.4307211    581.33876    55316.619 
  155000    301.28333   -193492.98            0    -192416.3   -708.30879    87.796288    90.132245    88.647981    3.0659372    586.91059    55309.336 
  156000    298.86087   -193497.37            0   -192429.35   -611.20247    87.796288    90.132245    88.647981     2.930697     592.3606    55290.715 
  157000    301.86722   -193508.25            0   -192429.48    -874.0796    87.796288    90.132245    88.647981    2.7902433    597.86791    55277.638 
  158000    300.54381   -193509.25            0   -192435.21   -636.75581    87.796288    90.132245    88.647981     3.592428     603.3107    55258.792 
  159000    298.02641   -193498.15            0    -192433.1   -915.18332    87.796288    90.132245    88.647981    2.9405326    609.22219    55282.722 
  160000    301.49765   -193505.02            0   -192427.57   -658.21473    87.796288    90.132245    88.647981    3.0314507     614.8408    55279.777 
  161000    297.91098   -193509.85            0   -192445.22   -894.71387    87.796288    90.132245    88.647981    2.9012306    620.49756    55280.183 
  162000    302.13155   -193507.98            0   -192428.27   -678.58232    87.796288    90.132245    88.647981    3.6708826    626.03969    55270.361 
  163000     299.7501   -193507.11            0   -192435.91    -958.5287    87.796288    90.132245    88.647981    3.3096292    631.43408    55247.688 
  164000    299.67599   -193495.57            0   -192424.63   -699.00365    87.796288    90.132245    88.647981    2.9977161    636.73526    55217.235 
  165000    298.97629   -193510.31            0   -192441.87   -858.34514    87.796288    90.132245    88.647981    3.1774048    642.23695    55204.455 
  166000     299.4521   -193510.34            0   -192440.21   -773.32215    87.796288    90.132245    88.647981    2.9795902    648.14284     55226.24 
  167000     300.5191   -193511.63            0   -192437.67   -827.59575    87.796288    90.132245    88.647981    2.9659939    653.82363    55228.538 
  168000    298.70486   -193501.66            0    -192434.2   -843.28138    87.796288    90.132245    88.647981    3.0946933    659.54874    55234.412 
  169000    300.98704   -193505.47            0   -192429.85   -778.54355    87.796288    90.132245    88.647981    3.3078127    664.94447    55212.742 
  170000    298.64118   -193514.13            0   -192446.89   -850.69754    87.796288    90.132245    88.647981    2.8949155    670.25975     55184.72 
  171000    297.54453   -193507.97            0   -192444.65   -675.84685    87.796288    90.132245    88.647981    3.1889895    675.71553    55168.544 
  172000    300.78185   -193513.06            0   -192438.17   -663.13391    87.796288    90.132245    88.647981     3.172903    681.20867    55155.568 
  173000    298.37378    -193508.7            0   -192442.42   -857.99546    87.796288    90.132245    88.647981    3.8157469    687.08927    55173.827 
  174000    300.85885   -193510.86            0   -192435.69   -719.88307    87.796288    90.132245    88.647981    3.1191632    692.71016    55171.013 
  175000    299.79986   -193516.32            0   -192444.94   -473.07368    87.796288    90.132245    88.647981    3.0480689    698.19171    55157.145 
  176000    301.26427   -193510.37            0   -192433.76   -778.46972    87.796288    90.132245    88.647981    2.7269857    703.74114    55148.731 
  177000    301.97601   -193514.01            0   -192434.85   -695.09654    87.796288    90.132245    88.647981    3.1352379    709.20877    55134.001 
  178000    300.30001   -193512.53            0   -192439.37   -821.08261    87.796288    90.132245    88.647981    3.1794357    714.68864    55120.362 
  179000    299.00592    -193509.4            0   -192440.86   -784.66071    87.796288    90.132245    88.647981    3.7925347    720.19742     55109.06 
  180000    299.31547   -193524.65            0      -192455   -828.75123    87.796288    90.132245    88.647981    2.8233723     726.0129    55121.133 
  181000    299.74134   -193501.87            0    -192430.7   -1010.3548    87.796288    90.132245    88.647981    2.5850258    731.64722    55119.285 
  182000    299.97635    -193526.1            0   -192454.09   -534.44384    87.796288    90.132245    88.647981    3.0685928    737.14079    55106.858 
  183000     299.9334   -193510.52            0   -192438.66   -989.78547    87.796288    90.132245    88.647981    2.8152268    742.82956    55109.017 
  184000    300.17514    -193515.4            0   -192442.68   -910.63733    87.796288    90.132245    88.647981    3.5208893     748.3602    55099.416 
  185000    298.06746   -193520.93            0   -192455.73   -992.21332    87.796288    90.132245    88.647981     2.951942    753.83399    55085.721 
  186000    301.55114    -193517.9            0   -192440.26   -1004.4369    87.796288    90.132245    88.647981    3.5274668    759.33136    55073.857 
  187000    299.89177    -193519.9            0   -192448.19   -973.93726    87.796288    90.132245    88.647981    3.0248303    764.87285    55065.262 
  188000    302.77941   -193514.57            0   -192432.54   -769.74114    87.796288    90.132245    88.647981    3.1171868    770.62451    55071.732 
  189000    299.46225   -193524.37            0    -192454.2   -934.76318    87.796288    90.132245    88.647981    3.0249402    776.25376    55069.341 
  190000    302.12619   -193524.54            0   -192444.85   -851.51792    87.796288    90.132245    88.647981    3.0796581    781.92277    55069.704 
  191000    298.13144   -193525.26            0   -192459.84    -938.2123    87.796288    90.132245    88.647981    4.3546797    787.44825    55059.945 
  192000    298.92654   -193529.35            0   -192461.09   -952.07409    87.796288    90.132245    88.647981    3.3390194    792.85711    55042.151 
  193000    301.26484   -193512.99            0   -192436.37   -877.88585    87.796288    90.132245    88.647981    3.2443609    798.05398    55009.917 
  194000    301.32739    -193536.2            0   -192459.36   -909.07313    87.796288    90.132245    88.647981    3.0788981    803.57672    55000.362 
  195000    301.16463   -193526.19            0   -192449.93   -839.41524    87.796288    90.132245    88.647981    3.3596375    809.44741    55014.512 
  196000    298.00234   -193509.84            0   -192444.88   -1130.8784    87.796288    90.132245    88.647981    3.0917813    815.04085    55009.675 
  197000    298.67257   -193523.26            0   -192455.91   -927.33548    87.796288    90.132245    88.647981    3.0848438    820.62781    55004.393 
  198000    299.23258   -193521.53            0   -192452.18   -898.36013    87.796288    90.132245    88.647981    3.1940654    826.15711     54995.27 
  199000    300.56394   -193517.01            0    -192442.9   -1068.9204    87.796288    90.132245    88.647981    3.3199441    831.47845    54972.444 
  200000    299.40145   -193528.51            0   -192458.55   -859.83167    87.796288    90.132245    88.647981    2.9745427    836.91638    54957.509 
  201000    297.58308   -193521.34            0   -192457.88   -970.07347    87.796288    90.132245    88.647981    3.2725839    842.47242    54950.403 
  202000    298.13874   -193525.54            0    -192460.1   -995.24617    87.796288    90.132245    88.647981    3.1592959    848.41724    54968.506 
  203000    299.63882   -193522.37            0   -192451.56   -946.91466    87.796288    90.132245    88.647981    3.1171736    854.02446    54964.568 
  204000    300.25216   -193537.45            0   -192464.45   -1003.6996    87.796288    90.132245    88.647981    3.2918873    859.56746    54956.502 
  205000    300.44084   -193521.45            0   -192447.78   -970.82998    87.796288    90.132245    88.647981    3.0759543    864.97938    54940.142 
  206000    301.93255   -193532.32            0   -192453.32   -907.94571    87.796288    90.132245    88.647981    3.1603116    870.41478    54925.404 
  207000     302.9003   -193540.19            0   -192457.73   -953.25212    87.796288    90.132245    88.647981    2.8022846    875.86123    54911.478 
  208000      299.617   -193530.21            0   -192459.48   -908.51958    87.796288    90.132245    88.647981    3.0878801    881.24639    54893.842 
  209000    298.80439   -193532.32            0    -192464.5   -975.97889    87.796288    90.132245    88.647981    3.3465837     887.0396    54901.614 
  210000    302.55808   -193532.19            0   -192450.95   -803.40484    87.796288    90.132245    88.647981    2.8535384    892.85668    54910.686 
  211000    300.02224   -193533.02            0   -192460.85   -1056.7779    87.796288    90.132245    88.647981    2.9886862    898.16552    54888.513 
  212000    298.81209   -193533.51            0   -192465.66   -1215.9429    87.796288    90.132245    88.647981    3.1658707    903.71262    54881.017 
  213000    300.48317   -193534.08            0   -192460.25   -1141.0003    87.796288    90.132245    88.647981    3.0433707    909.15927    54867.483 
  214000    300.33494   -193536.79            0   -192463.49   -1216.3912    87.796288    90.132245    88.647981    3.1255095    914.62418    54855.143 
  215000    302.15757   -193529.83            0   -192450.02   -1077.6937    87.796288    90.132245    88.647981    3.2532365    920.15245    54846.663 
  216000    301.19594   -193533.39            0   -192457.02   -1008.5392    87.796288    90.132245    88.647981    3.1073648    925.79386    54844.921 
  217000    300.87254   -193524.27            0   -192449.05   -1036.7927    87.796288    90.132245    88.647981    3.1674139    931.35786    54838.574 
  218000    300.61898   -193535.23            0   -192460.93   -1162.5772    87.796288    90.132245    88.647981    3.0749891    936.87183    54829.309 
  219000    297.58358   -193539.13            0   -192475.67    -1084.659    87.796288    90.132245    88.647981    2.9191075    942.48722    54825.987 
  220000    302.18947   -193538.64            0   -192458.72   -1067.8377    87.796288    90.132245    88.647981    2.8616476    948.02821    54818.337 
  221000    297.93307   -193539.95            0   -192475.24   -1162.2962    87.796288    90.132245    88.647981    2.8682681     953.5106    54807.343 
  222000    301.66191   -193535.73            0   -192457.69   -997.53541    87.796288    90.132245    88.647981    3.1705648    958.95041    54793.981 
  223000    300.17006   -193538.49            0   -192465.78     -1244.65    87.796288    90.132245    88.647981    2.8463094    964.35025    54778.439 
  224000    300.75926    -193529.6            0   -192454.79   -1011.3773    87.796288    90.132245    88.647981     3.175987    970.18615    54787.639 
  225000    297.38857    -193539.1            0   -192476.33   -1025.6841    87.796288    90.132245    88.647981    3.0077887    975.86236    54787.701 
  226000    299.04509   -193530.14            0   -192461.46   -1134.5632    87.796288    90.132245    88.647981    2.9280626    981.50631    54785.898 
  227000    299.68751   -193541.05            0   -192470.07    -1057.611    87.796288    90.132245    88.647981     3.159439    987.02252    54776.962 
  228000    300.16627   -193543.33            0   -192470.64    -1269.466    87.796288    90.132245    88.647981    2.9811355    992.49519    54765.661 
  229000    298.44345    -193526.6            0   -192460.07   -1200.3137    87.796288    90.132245    88.647981    3.1491854    997.73202    54741.487 
  230000    300.59383   -193554.68            0   -192480.47   -1136.3353    87.796288    90.132245    88.647981    3.1039957    1003.1539    54727.617 
  231000    298.55668   -193531.28            0   -192464.34   -1441.3258    87.796288    90.132245    88.647981    3.7062509    1009.1016    54742.369 
  232000    299.18245   -193533.44            0   -192464.26    -1121.164    87.796288    90.132245    88.647981    2.8821458    1014.6582     54735.79 
  233000    303.36992   -193550.67            0   -192466.53   -1193.9042    87.796288    90.132245    88.647981    2.8584096    1020.3443    54736.174 
  234000    300.74459   -193544.97            0   -192470.21   -1171.0938    87.796288    90.132245    88.647981    3.2703689    1025.9122    54730.185 
  235000    299.15235   -193542.16            0   -192473.09   -1204.9853    87.796288    90.132245    88.647981    3.3040948    1031.1476    54706.559 
  236000    301.63337   -193550.91            0   -192472.98   -1273.1437    87.796288    90.132245    88.647981    3.3198765    1036.6307    54696.202 
  237000    300.91301   -193539.15            0    -192463.8   -1135.2977    87.796288    90.132245    88.647981    3.2825898    1042.1353    54687.027 
  238000    301.45763    -193539.9            0   -192462.59   -1052.1617    87.796288    90.132245    88.647981    3.1660166    1048.0541    54699.505 
  239000    298.49284   -193549.01            0    -192482.3   -1305.9247    87.796288    90.132245    88.647981    3.0405498    1053.6815    54696.665 
  240000     301.8477   -193541.09            0   -192462.39   -1237.7433    87.796288    90.132245    88.647981    2.9980989    1059.2832    54692.463 
  241000    299.10717   -193542.41            0    -192473.5   -1171.0741    87.796288    90.132245    88.647981    3.3009164    1064.7099    54679.264 
  242000    301.89823   -193542.61            0   -192463.73   -1137.7532    87.796288    90.132245    88.647981    3.4947022    1070.2116    54669.976 
  243000    300.04725   -193547.61            0   -192475.34   -1065.7498    87.796288    90.132245    88.647981    3.4527882    1075.6538    54657.702 
  244000    302.30025   -193547.09            0   -192466.77   -986.07008    87.796288    90.132245    88.647981    2.7838716    1081.1447    54647.965 
  245000    299.27473   -193545.36            0   -192475.85   -1124.4378    87.796288    90.132245    88.647981    3.2444966    1086.9583    54654.493 
  246000     301.3877    -193545.7            0   -192468.65   -1074.0635    87.796288    90.132245    88.647981    3.1326259    1092.7564    54660.121 
  247000    299.66029   -193556.06            0   -192485.18   -1242.5197    87.796288    90.132245    88.647981    2.8879031     1098.081    54642.069 
  248000    300.37436   -193547.31            0   -192473.88   -1121.1381    87.796288    90.132245    88.647981    2.9991418    1103.6827    54637.867 
  249000    301.60077   -193550.29            0   -192472.47   -918.70273    87.796288    90.132245    88.647981    3.0491835    1109.1504    54627.053 
  250000    297.53743   -193542.88            0   -192479.59   -1031.3685    87.796288    90.132245    88.647981    3.3541457    1114.6414    54617.428 
  251000    300.69704   -193550.37            0   -192475.78   -1406.7189    87.796288    90.132245    88.647981    3.1188324    1120.0803    54605.306 
  252000    301.16756   -193542.28            0   -192466.01   -1160.2651    87.796288    90.132245    88.647981    3.5136094    1125.9586    54614.568 
  253000    298.82822   -193543.83            0   -192475.92    -1076.727    87.796288    90.132245    88.647981    2.8598208    1131.5847    54611.506 
  254000    300.85033   -193542.49            0   -192467.36   -1371.6146    87.796288    90.132245    88.647981    3.5837911    1137.1908    54607.457 
  255000    299.41374   -193554.45            0   -192484.45    -1224.773    87.796288    90.132245    88.647981    3.2851211    1142.9719    54611.757 
  256000    300.34315   -193552.47            0   -192479.15   -1056.9507    87.796288    90.132245    88.647981    3.1606743    1148.4304    54600.616 
  257000    302.11375   -193544.37            0   -192464.72   -1240.1187    87.796288    90.132245    88.647981    3.2457753     1153.927    54591.337 
  258000    299.08163    -193554.5            0   -192485.68   -1217.9141    87.796288    90.132245    88.647981    3.0343198     1159.458    54583.715 
  259000    300.57373   -193557.51            0   -192483.36   -1196.0731    87.796288    90.132245    88.647981    2.9623856    1164.9657     54575.02 
  260000    299.86745   -193547.76            0   -192476.13   -1515.3218    87.796288    90.132245    88.647981    3.0662792    1170.7685    54580.114 
  261000    297.88505   -193548.88            0   -192484.34   -1137.6557    87.796288    90.132245    88.647981    2.7490194    1176.3617    54575.376 
  262000    299.86748   -193552.37            0   -192480.75   -1166.2171    87.796288    90.132245    88.647981    3.3926975    1182.1413    54579.242 
  263000    300.15499   -193544.44            0   -192471.79   -1222.0893    87.796288    90.132245    88.647981    3.0146564    1187.5953    54568.054 
  264000    297.23562   -193550.81            0    -192488.6   -1311.4313    87.796288    90.132245    88.647981    2.9691579    1193.1313    54560.667 
  265000    301.20735   -193542.76            0   -192466.35   -1263.7554    87.796288    90.132245    88.647981    2.8779901    1198.3199    54537.491 
  266000    298.15919   -193550.76            0   -192485.24    -1248.408    87.796288    90.132245    88.647981    3.1511827    1203.9124    54532.774 
  267000    300.42866   -193550.51            0   -192476.88   -1161.9776    87.796288    90.132245    88.647981    3.4109153    1209.7687    54539.941 
  268000    298.34982   -193554.91            0   -192488.72   -1276.2996    87.796288    90.132245    88.647981    2.8282478    1215.3386     54534.14 
  269000    299.78967    -193547.5            0   -192476.16   -1399.2504    87.796288    90.132245    88.647981    3.1708827    1220.9691    54531.043 
  270000    300.63762   -193547.57            0   -192473.19   -1198.1703    87.796288    90.132245    88.647981    3.1409362    1226.4895    54523.033 
  271000    300.28171   -193555.49            0   -192482.38    -1044.849    87.796288    90.132245    88.647981    2.8156797    1231.6918    54500.969 
  272000    299.67121    -193547.4            0   -192476.48   -1121.9813    87.796288    90.132245    88.647981    2.9604164     1237.245     54494.51 
  273000     297.7781   -193552.38            0   -192488.22   -1240.5129    87.796288    90.132245    88.647981    3.1214292    1242.7349    54485.288 
  274000    298.09532   -193560.43            0   -192495.14   -1181.6695    87.796288    90.132245    88.647981     3.528475    1248.6109    54492.946 
  275000    301.60002   -193551.93            0   -192474.12   -1076.9484    87.796288    90.132245    88.647981    3.4385568    1254.3017    54492.442 
  276000    297.73741   -193556.25            0   -192492.23   -1348.4455    87.796288    90.132245    88.647981    3.0348792    1259.8877    54487.357 
  277000    301.47093   -193553.98            0   -192476.63   -1427.5752    87.796288    90.132245    88.647981    3.1046151    1265.2622     54473.16 
  278000    297.67144   -193553.42            0   -192489.65   -1181.0199    87.796288    90.132245    88.647981    3.0326567    1270.7469    54463.767 
  279000    302.60598   -193551.72            0   -192470.31   -1144.7799    87.796288    90.132245    88.647981    3.0545346    1276.1973    54452.944 
  280000    297.40443   -193548.09            0   -192485.27   -1206.7176    87.796288    90.132245    88.647981    3.2141476      1281.75     54446.51 
  281000    298.62697    -193558.8            0   -192491.61   -1259.9376    87.796288    90.132245    88.647981     3.067209      1287.59    54452.238 
  282000    301.46649   -193562.18            0   -192484.85   -1139.4611    87.796288    90.132245    88.647981    3.2509165     1293.307    54452.683 
  283000    299.82908   -193555.59            0   -192484.11   -1233.2016    87.796288    90.132245    88.647981    2.8881418    1298.6416    54437.051 
  284000    302.65546   -193559.22            0   -192477.63   -1274.3276    87.796288    90.132245    88.647981    3.2531663    1304.2657    54433.584 
  285000    299.42102   -193562.76            0   -192492.73   -1436.6855    87.796288    90.132245    88.647981    2.6868972    1309.7365    54423.731 
  286000    299.56127   -193552.12            0   -192481.59    -1156.595    87.796288    90.132245    88.647981    3.7496503    1315.2445    54415.454 
  287000    298.96229   -193559.17            0   -192490.78   -1524.8708    87.796288    90.132245    88.647981    2.7458817     1320.779    54408.294 
  288000    300.64179   -193557.85            0   -192483.46   -1170.3533    87.796288    90.132245    88.647981    3.1053961    1326.6529    54415.067 
  289000    301.59025   -193569.64            0   -192491.86   -1343.6856    87.796288    90.132245    88.647981    3.6223277    1332.3069    54412.753 
  290000     301.4039   -193565.72            0   -192488.61   -1119.1551    87.796288    90.132245    88.647981     3.136686    1337.9245     54408.93 
  291000    301.58404   -193565.64            0   -192487.89   -1130.1121    87.796288    90.132245    88.647981     3.763935    1343.5944    54407.211 
  292000    300.31944   -193571.31            0   -192498.07   -1342.5303    87.796288    90.132245    88.647981    3.3274086    1349.1271    54399.928 
  293000    299.72378   -193558.25            0   -192487.14   -1161.4524    87.796288    90.132245    88.647981    2.8238543    1354.6471    54392.147 
  294000    299.20625   -193555.04            0   -192485.78   -994.66674    87.796288    90.132245    88.647981    3.3260347    1360.0924    54381.401 
  295000    299.31582   -193559.63            0   -192489.98   -1299.3133    87.796288    90.132245    88.647981    2.9549287    1365.6599    54375.559 
  296000    299.49176    -193555.8            0   -192485.52   -1438.9086    87.796288    90.132245    88.647981    2.9772507    1371.5228    54381.438 
  297000    299.32952    -193567.1            0    -192497.4    -1215.084    87.796288    90.132245    88.647981    3.5425561    1377.1356    54377.343 
  298000    301.14008   -193561.36            0   -192485.19   -1251.2168    87.796288    90.132245    88.647981    3.8289775    1382.8617     54377.69 
  299000    300.17879   -193559.46            0   -192486.73   -1232.4155    87.796288    90.132245    88.647981    3.2997513    1388.2198     54363.58 
  300000    300.55885   -193571.41            0   -192497.32   -1282.4411    87.796288    90.132245    88.647981    3.0296831    1393.6596    54352.725 
  301000    300.22661   -193571.13            0   -192498.22   -1272.1756    87.796288    90.132245    88.647981    2.9946729    1398.9431    54335.843 
  302000    301.76936   -193568.65            0   -192490.23   -1233.0837    87.796288    90.132245    88.647981     2.697434    1404.6979    54337.283 
  303000    300.04139   -193577.24            0      -192505   -1098.9758    87.796288    90.132245    88.647981     3.123332    1410.5966    54344.208 
  304000     301.1926   -193571.82            0   -192495.46   -1166.2452    87.796288    90.132245    88.647981    3.0624621    1416.2019    54339.777 
  305000    300.79483   -193571.47            0   -192496.53    -1506.649    87.796288    90.132245    88.647981     3.128813    1421.9197    54339.639 
  306000    297.67975   -193573.37            0   -192509.57   -1250.4753    87.796288    90.132245    88.647981    2.9376164    1427.3441    54328.283 
  307000     300.8599   -193568.81            0   -192493.64   -1304.6305    87.796288    90.132245    88.647981    2.5488644    1432.6995    54314.363 
  308000    301.13357   -193567.05            0    -192490.9   -1240.1196    87.796288    90.132245    88.647981    3.1333545    1438.1433    54303.844 
  309000     300.4999   -193584.79            0   -192510.91   -1359.6962    87.796288    90.132245    88.647981    3.7660656    1443.6579    54296.028 
  310000    301.55227   -193569.11            0   -192491.46   -1112.9444    87.796288    90.132245    88.647981    3.1608997    1449.6748     54307.05 
  311000    299.22221   -193576.88            0   -192507.56    -1252.658    87.796288    90.132245    88.647981    3.0666796    1455.3683    54305.869 
  312000    299.63067   -193570.21            0   -192499.43   -1229.3689    87.796288    90.132245    88.647981    3.6820733    1460.7943    54294.715 
  313000    299.91904   -193579.83            0   -192508.02   -1281.2853    87.796288    90.132245    88.647981    3.0636289    1466.2303    54283.972 
  314000    298.13787    -193565.7            0   -192500.26     -987.125    87.796288    90.132245    88.647981    3.0841327    1471.6497    54272.656 
  315000     298.6378    -193572.1            0   -192504.87   -1232.3405    87.796288    90.132245    88.647981    3.3574504    1477.2299    54267.294 
  316000     298.7902   -193574.36            0   -192506.58   -1117.5218    87.796288    90.132245    88.647981    2.8601681     1482.785    54261.011 
  317000    300.35177   -193586.59            0   -192513.23   -1266.0743    87.796288    90.132245    88.647981    3.4450967    1488.7006    54267.878 
  318000    303.12911    -193573.4            0   -192490.12   -1201.8633    87.796288    90.132245    88.647981    2.9167688    1494.1743    54258.599 
  319000    298.35651   -193574.37            0   -192508.15   -1470.6923    87.796288    90.132245    88.647981    2.9418139    1499.6119    54248.041 
  320000    299.81598   -193569.52            0   -192498.08   -1032.1777    87.796288    90.132245    88.647981    3.1806268     1505.183    54242.335 
  321000    300.76329   -193577.77            0   -192502.95   -1130.1775    87.796288    90.132245    88.647981    2.9511157    1510.5975    54231.006 
  322000    299.81721    -193573.8            0   -192502.36   -1316.9208    87.796288    90.132245    88.647981    3.4534364    1516.1812    54225.776 
  323000    299.56042   -193570.96            0   -192500.43   -1180.0255    87.796288    90.132245    88.647981    3.3062557    1521.7218    54219.004 
  324000    299.58551   -193580.91            0   -192510.29   -1219.4666    87.796288    90.132245    88.647981    3.5858272    1527.6133    54224.696 
  325000    300.00859   -193569.89            0   -192497.77    -1124.502    87.796288    90.132245    88.647981    3.3847653    1533.3456    54224.675 
  326000    298.97394   -193585.32            0   -192516.89   -1235.6791    87.796288    90.132245    88.647981    2.9485579    1539.0713    54224.382 
  327000     299.7133   -193580.77            0    -192509.7   -1380.7506    87.796288    90.132245    88.647981    3.1789553    1544.7892    54223.773 
  328000    299.35981   -193576.25            0   -192506.44   -1269.3122    87.796288    90.132245    88.647981    2.9476971    1550.2937    54215.668 
  329000    300.78027   -193586.53            0   -192511.64   -1385.9123    87.796288    90.132245    88.647981    3.5285317     1555.976    54213.774 
  330000    299.74399   -193580.08            0   -192508.89   -1354.6145    87.796288    90.132245    88.647981    3.2697176    1561.1806    54195.268 
  331000    302.26361   -193579.28            0   -192499.09    -886.6971    87.796288    90.132245    88.647981    2.9448595     1566.933    54195.808 
  332000    301.17923   -193581.17            0   -192504.86   -1221.1555    87.796288    90.132245    88.647981    2.7992894    1572.6395    54194.719 
  333000    302.20635   -193581.77            0   -192501.79   -1160.9896    87.796288    90.132245    88.647981     3.086443    1578.2665    54190.868 
  334000    298.76681   -193581.34            0   -192513.65   -1079.2181    87.796288    90.132245    88.647981    3.0221082    1583.9071     54187.47 
  335000    303.37483   -193585.98            0   -192501.83   -1125.3713    87.796288    90.132245    88.647981    2.6657299    1589.4239    54179.834 
  336000    300.60418   -193574.82            0   -192500.56   -1323.5638    87.796288    90.132245    88.647981    2.7318884    1594.5878    54160.232 
  337000    299.16109   -193583.19            0   -192514.09   -1226.8263    87.796288    90.132245    88.647981    2.7808498    1600.0937    54152.299 
  338000    297.81909   -193579.99            0   -192515.69   -1262.3921    87.796288    90.132245    88.647981    2.9930769    1605.9202    54155.199 
  339000    299.51068   -193586.63            0   -192516.28   -1084.2404    87.796288    90.132245    88.647981    3.0951673    1611.6725    54155.544 
  340000    296.76203   -193587.62            0   -192527.09   -1128.9984    87.796288    90.132245    88.647981    3.1093411    1617.2302    54149.329 
  341000    298.86371   -193584.61            0   -192516.57   -1297.2624    87.796288    90.132245    88.647981    3.0817174    1622.9662    54149.069 
  342000     302.1141   -193591.04            0   -192511.39   -1230.6985    87.796288    90.132245    88.647981    3.2354444    1628.3021     54135.47 
  343000     299.7933   -193584.76            0    -192513.4   -1436.9391    87.796288    90.132245    88.647981    2.8138629    1633.7642    54126.106 
  344000    303.02808   -193585.45            0   -192502.53   -1084.3272    87.796288    90.132245    88.647981    3.0320965    1639.2204    54116.576 
  345000    300.10903    -193588.9            0   -192516.41    -1211.165    87.796288    90.132245    88.647981    3.2709002    1644.9303     54115.42 
  346000    300.55282   -193601.45            0   -192527.38   -1339.4379    87.796288    90.132245    88.647981    3.3856157    1650.7886    54119.098 
  347000    299.97829   -193589.72            0    -192517.7   -1311.9475    87.796288    90.132245    88.647981    3.6488971    1656.5519    54119.608 
  348000    299.75042   -193588.96            0   -192517.76    -1144.805    87.796288    90.132245    88.647981    3.3186355    1661.9542     54108.32 
  349000    301.92558   -193574.73            0   -192495.75   -1285.7349    87.796288    90.132245    88.647981    2.8653676    1667.4346    54099.608 
  350000    298.66085   -193585.98            0   -192518.67   -1434.8045    87.796288    90.132245    88.647981    2.8643973    1672.9975    54093.585 
  351000    295.35061   -193584.87            0   -192529.39   -1537.9841    87.796288    90.132245    88.647981    2.9858021    1678.4828    54085.066 
  352000    301.42203    -193578.8            0   -192501.62   -1061.4136    87.796288    90.132245    88.647981    3.1179781    1684.1169    54081.343 
  353000    299.84597   -193590.25            0    -192518.7   -1412.2402    87.796288    90.132245    88.647981    2.6978562    1690.0233    54086.323 
  354000     300.8687   -193582.41            0   -192507.21   -1537.7098    87.796288    90.132245    88.647981    3.2428326    1695.4664    54076.454 
  355000    301.50804   -193591.31            0   -192513.82   -1138.3204    87.796288    90.132245    88.647981    3.2988272    1701.1404    54073.955 
  356000    301.22593   -193585.46            0   -192508.98   -1478.0587    87.796288    90.132245    88.647981    3.0012679    1706.6827     54067.26 
  357000    300.76599   -193584.64            0    -192509.8   -1266.3152    87.796288    90.132245    88.647981    3.1982046    1712.2239    54060.541 
  358000    298.57218   -193586.61            0   -192519.62    -1364.303    87.796288    90.132245    88.647981    3.0022309    1717.6998    54051.773 
  359000    300.59915   -193582.39            0   -192508.15   -1066.7501    87.796288    90.132245    88.647981    3.2688849    1723.2474    54045.278 
  360000    300.44929   -193590.28            0   -192516.57    -1258.954    87.796288    90.132245    88.647981    2.9456994    1728.9776    54044.493 
  361000    299.21166   -193593.24            0   -192523.96   -1366.5469    87.796288    90.132245    88.647981    3.3423123    1734.7499     54044.99 
  362000    301.24091   -193593.41            0   -192516.88   -1515.5808    87.796288    90.132245    88.647981    3.2653585    1740.2356    54036.545 
  363000      300.306   -193588.84            0   -192515.65   -1326.3827    87.796288    90.132245    88.647981    3.1430328    1745.7406    54028.718 
  364000    300.72388   -193595.11            0   -192520.42   -1524.8322    87.796288    90.132245    88.647981    3.0726713    1751.1261    54017.222 
  365000    298.88235   -193588.11            0      -192520   -1273.0072    87.796288    90.132245    88.647981    3.3413754     1756.652    54010.078 
  366000    301.40763   -193587.98            0   -192510.85    -1210.817    87.796288    90.132245    88.647981    3.2592582    1762.0627    53999.415 
  367000     299.2213   -193595.27            0   -192525.96   -1248.0566    87.796288    90.132245    88.647981    3.0977173    1768.0208    54005.507 
  368000    299.39517   -193587.48            0   -192517.54    -1278.609    87.796288    90.132245    88.647981    2.9470898    1773.8126    54006.457 
  369000    297.68976   -193587.16            0   -192523.32   -1352.9826    87.796288    90.132245    88.647981    2.8649875    1779.6283    54008.093 
  370000    299.73246   -193581.55            0   -192510.41   -1551.4177    87.796288    90.132245    88.647981    2.9051495    1785.3408     54006.56 
  371000    298.96548   -193589.87            0   -192521.48   -1181.5675    87.796288    90.132245    88.647981    3.4281394    1790.9059    54000.556 
  372000    300.95857   -193587.92            0    -192512.4   -1340.2613    87.796288    90.132245    88.647981    3.0413655    1796.1862    53985.993 
  373000    298.07263   -193598.26            0   -192533.06    -1051.444    87.796288    90.132245    88.647981    3.0650871    1801.4873    53972.114 
  374000    299.79971   -193589.48            0    -192518.1     -1248.01    87.796288    90.132245    88.647981    3.3536712    1807.3937    53976.361 
  375000     301.9871   -193602.19            0   -192522.99   -1130.2103    87.796288    90.132245    88.647981    2.7278173    1813.1402    53975.789 
  376000    300.43386   -193587.33            0   -192513.68   -1293.2233    87.796288    90.132245    88.647981    3.2994602    1818.6935     53969.45 
  377000     296.8205   -193593.44            0   -192532.71   -1285.7655    87.796288    90.132245    88.647981    2.7214848    1824.1653    53960.706 
  378000    300.17193    -193589.1            0   -192516.39    -1304.221    87.796288    90.132245    88.647981    2.8154301    1829.5428    53949.201 
  379000    298.37819    -193599.2            0    -192532.9   -1475.2823    87.796288    90.132245    88.647981    3.2614085     1835.008     53940.31 
  380000    300.37384   -193597.06            0   -192523.63   -1440.6253    87.796288    90.132245    88.647981    3.0928258    1840.4892    53931.911 
  381000    300.69751   -193588.32            0   -192513.73   -1277.0915    87.796288    90.132245    88.647981    2.8299432    1846.2289    53931.079 
  382000    298.75104   -193598.82            0   -192531.19   -1314.9488    87.796288    90.132245    88.647981    4.2803123    1851.9985     53931.09 
  383000    299.91693   -193594.52            0   -192522.72   -1362.1383    87.796288    90.132245    88.647981    3.0056113    1857.4174    53920.884 
  384000    301.73978   -193599.93            0   -192521.61   -1365.8984    87.796288    90.132245    88.647981    3.0528214     1862.915    53912.983 
  385000    298.01254   -193604.83            0   -192539.84   -1467.7416    87.796288    90.132245    88.647981    2.9766897    1868.4741    53906.873 
  386000    300.04034   -193591.44            0    -192519.2   -1338.2706    87.796288    90.132245    88.647981    3.3817613    1873.9608    53898.681 
  387000    296.25818    -193587.3            0   -192528.58     -1389.29    87.796288    90.132245    88.647981    2.7870029    1879.4315    53890.049 
  388000    299.07233   -193596.52            0   -192527.73   -1223.0288    87.796288    90.132245    88.647981    2.9488982     1885.092     53886.86 
  389000    300.61662   -193604.05            0   -192529.75   -1174.3576    87.796288    90.132245    88.647981    3.5684795    1890.8703    53887.015 
  390000    300.35689   -193591.53            0   -192518.15   -1300.9859    87.796288    90.132245    88.647981    2.8726226    1896.3742    53879.337 
  391000    300.32746   -193594.05            0   -192520.78   -1315.9255    87.796288    90.132245    88.647981    2.9335081    1902.1076    53878.175 
  392000    302.55418   -193593.76            0   -192512.54   -1452.3089    87.796288    90.132245    88.647981    3.2466428    1907.6084    53870.416 
  393000     300.3233   -193592.15            0    -192518.9   -1162.3957    87.796288    90.132245    88.647981    3.0682832    1913.1564    53863.997 
  394000    301.70679    -193602.2            0      -192524   -1239.9185    87.796288    90.132245    88.647981    3.5792591    1918.5664    53853.712 
  395000    300.60258   -193591.69            0   -192517.44   -1336.9655    87.796288    90.132245    88.647981    3.0355909    1924.0331    53845.042 
  396000     300.4762      -193596            0    -192522.2   -1508.1816    87.796288    90.132245    88.647981    3.4638368    1929.8775     53846.93 
  397000    300.15548   -193583.83            0   -192511.18   -1287.1221    87.796288    90.132245    88.647981    2.9047181    1935.5372    53843.633 
  398000    300.17583   -193594.66            0   -192521.94   -1213.0458    87.796288    90.132245    88.647981    3.0316993    1941.1552    53839.167 
  399000    297.28899   -193602.07            0   -192539.66   -1154.7036    87.796288    90.132245    88.647981    2.7503923    1946.7338    53833.603 
  400000    302.71034   -193604.84            0   -192523.06   -1359.0806    87.796288    90.132245    88.647981    2.8602001    1952.1863    53824.565 
  401000    300.72026   -193598.54            0   -192523.87   -1365.5096    87.796288    90.132245    88.647981    3.0949621    1957.6654    53816.277 
  402000     299.8563   -193598.94            0   -192527.36    -1293.473    87.796288    90.132245    88.647981    2.8860709    1963.0703    53805.973 
  403000    297.02312   -193596.64            0   -192535.18   -1433.9428    87.796288    90.132245    88.647981    3.0747892    1968.9468    53808.584 
  404000    299.72328   -193597.42            0   -192526.31   -1471.5846    87.796288    90.132245    88.647981    3.1758289    1974.6501    53806.427 
  405000    300.72137   -193596.24            0   -192521.56   -1517.7599    87.796288    90.132245    88.647981    3.1647297    1980.2517    53801.487 
  406000    300.76226   -193599.28            0   -192524.46   -1319.4963    87.796288    90.132245    88.647981    3.0336013    1985.9241    53798.461 
  407000    304.34182   -193597.35            0   -192509.73   -1029.6447    87.796288    90.132245    88.647981    2.7500142    1991.1835    53784.266 
  408000    296.55711   -193603.47            0   -192543.68    -1311.705    87.796288    90.132245    88.647981    3.0163219    1996.5953    53774.222 
  409000    299.70123   -193596.05            0   -192525.02   -1464.3187    87.796288    90.132245    88.647981    2.8551875    2002.0751    53766.034 
  410000    298.44953   -193602.76            0   -192536.21   -1349.8337    87.796288    90.132245    88.647981    3.2347476    2008.0168    53770.226 
  411000    298.27945   -193600.05            0   -192534.11   -1345.3426    87.796288    90.132245    88.647981    2.7918518     2013.725    53768.131 
  412000    300.62721   -193585.29            0   -192510.95   -1428.7456    87.796288    90.132245    88.647981    3.1608471    2019.3954    53765.008 
  413000     299.1245   -193600.41            0   -192531.45   -1219.6529    87.796288    90.132245    88.647981    3.3958643    2024.8032      53754.9 
  414000    298.50195   -193599.39            0   -192532.65   -1534.4156    87.796288    90.132245    88.647981      2.91388    2030.2805    53746.657 
  415000     300.2016   -193597.21            0    -192524.4    -1255.839    87.796288    90.132245    88.647981    3.0700704     2035.745    53738.092 
  416000    300.86117   -193601.57            0    -192526.4   -1238.0184    87.796288    90.132245    88.647981    3.4182474    2041.1661    53728.401 
  417000    300.30488   -193595.34            0   -192522.15   -1560.0816    87.796288    90.132245    88.647981    3.0464254    2047.0232    53730.175 
  418000    298.72374   -193604.44            0    -192536.9   -1358.5198    87.796288    90.132245    88.647981    2.8491334    2052.7083    53727.408 
  419000    300.85356   -193599.92            0   -192524.77    -1215.894    87.796288    90.132245    88.647981    2.9926505    2058.0053    53714.496 
  420000    300.48676   -193597.18            0   -192523.35   -1449.5941    87.796288    90.132245    88.647981    2.8935324    2063.6686    53711.159 
  421000    297.93514   -193603.33            0   -192538.61   -1517.7265    87.796288    90.132245    88.647981     2.977751    2069.1641    53703.453 
  422000    301.70413   -193592.35            0   -192514.16   -1287.1099    87.796288    90.132245    88.647981    3.8263186    2074.7738    53698.714 
  423000    298.37596   -193605.83            0   -192539.53   -1591.0046    87.796288    90.132245    88.647981    3.1559024    2080.2526    53690.595 
  424000     300.0612   -193596.53            0   -192524.22   -1316.1733    87.796288    90.132245    88.647981    3.0021463    2086.0167    53689.831 
  425000    298.53538   -193609.55            0   -192542.69   -1315.6746    87.796288    90.132245    88.647981     2.978887    2091.5378    53682.804 
  426000    299.10178   -193610.66            0   -192541.77   -1271.8462    87.796288    90.132245    88.647981    3.0483768    2097.1904    53679.149 
  427000    299.22145    -193592.1            0   -192522.78   -1180.5626    87.796288    90.132245    88.647981     2.903807    2102.8182    53674.852 
  428000    299.12822   -193601.42            0   -192532.43   -1724.2949    87.796288    90.132245    88.647981     3.280296    2108.2969    53666.753 
  429000    300.16259   -193605.91            0   -192533.24   -1321.7179    87.796288    90.132245    88.647981    2.9369312    2113.6998    53656.743 
  430000    300.91633   -193600.01            0   -192524.64    -1204.366    87.796288    90.132245    88.647981    3.0947856    2119.0955    53646.575 
  431000    298.84825   -193603.45            0   -192535.47   -1531.1923    87.796288    90.132245    88.647981    3.0658855    2124.5355     53637.55 
  432000    298.54781   -193600.97            0   -192534.06   -1598.3603    87.796288    90.132245    88.647981     2.892362    2130.4046    53639.351 
  433000    300.91151   -193599.59            0   -192524.24   -1283.0038    87.796288    90.132245    88.647981    3.4462503    2136.0107    53634.503 
  434000    300.83629   -193604.18            0   -192529.09   -1414.8704    87.796288    90.132245    88.647981    3.2542191    2141.6399    53630.232 
  435000    301.47686   -193605.58            0    -192528.2   -1331.8421    87.796288    90.132245    88.647981     3.337611    2147.1655    53623.367 
  436000    301.59533   -193604.04            0   -192526.24    -1518.793    87.796288    90.132245    88.647981    3.1344922    2152.6984     53616.69 
  437000    300.83153   -193599.93            0   -192524.86   -1384.3736    87.796288    90.132245    88.647981     3.281792    2158.1926    53609.059 
  438000    299.45335   -193599.47            0   -192529.33   -1325.5661    87.796288    90.132245    88.647981    2.9107765    2163.7598    53603.244 
  439000    299.50463   -193597.82            0    -192527.5   -1535.3272    87.796288    90.132245    88.647981    3.1425168    2169.6416    53605.207 
  440000    299.78915   -193610.46            0   -192539.12   -1453.3004    87.796288    90.132245    88.647981    3.0553701    2175.2382      53600.1 
  441000    296.17945   -193599.33            0   -192540.88   -1394.6127    87.796288    90.132245    88.647981    3.8269131    2180.9496    53597.813 
  442000    300.76429    -193593.1            0   -192518.27   -1580.9656    87.796288    90.132245    88.647981    3.0340469    2186.3703    53588.382 
  443000    298.76131   -193605.31            0   -192537.64   -1242.6817    87.796288    90.132245    88.647981    3.2100526    2191.5015    53571.896 
  444000    299.11149   -193597.99            0   -192529.07   -1196.3207    87.796288    90.132245    88.647981    3.1464678    2196.5983    53554.627 
  445000    299.17654   -193600.09            0   -192530.94   -1152.0051    87.796288    90.132245    88.647981    2.7969293    2201.7692    53539.224 
  446000    299.50393   -193612.94            0   -192542.61   -1518.4498    87.796288    90.132245    88.647981    3.5080554    2207.5874    53539.569 
  447000    304.72212   -193612.72            0   -192523.75   -1252.5678    87.796288    90.132245    88.647981    3.2300006    2212.9887    53529.801 
  448000    301.96378    -193610.6            0   -192531.48   -1347.1269    87.796288    90.132245    88.647981    2.9816482    2218.3227    53518.429 
  449000    300.66578   -193610.74            0   -192536.26   -1615.4863    87.796288    90.132245    88.647981    2.8354602    2223.6428    53506.754 
  450000    298.87396   -193609.52            0   -192541.45   -960.52723    87.796288    90.132245    88.647981    3.2898206    2228.6891    53488.538 
  451000    300.11173   -193610.36            0   -192537.86   -1420.9578    87.796288    90.132245    88.647981    3.3358351    2233.8734    53473.692 
  452000    299.91531   -193613.68            0   -192541.89   -1280.9679    87.796288    90.132245    88.647981    3.2742211    2239.0337    53458.322 
  453000    302.85299   -193594.45            0   -192512.16   -1352.6891    87.796288    90.132245    88.647981    2.8510344    2244.4439    53448.953 
  454000    301.97685   -193608.73            0   -192529.57   -1452.3223    87.796288    90.132245    88.647981    3.3659461    2250.0971    53445.375 
  455000    298.76204   -193615.43            0   -192547.76   -1295.9672    87.796288    90.132245    88.647981    2.8247728    2255.4623    53434.964 
  456000    299.43304   -193612.16            0   -192542.09   -1268.1936    87.796288    90.132245    88.647981      3.00164    2260.8042    53424.028 
  457000     300.8174   -193609.77            0   -192534.75   -1571.3906    87.796288    90.132245    88.647981    3.1095225     2265.928    53407.978 
  458000    298.82874   -193596.96            0   -192529.04    -1169.257    87.796288    90.132245    88.647981    3.3447672    2270.8169     53386.46 
  459000    301.38187   -193614.82            0   -192537.79   -1609.2574    87.796288    90.132245    88.647981    3.0481866    2275.8609    53368.659 
  460000    301.60272   -193614.65            0   -192536.82   -1565.5252    87.796288    90.132245    88.647981    2.9249818     2281.269    53359.437 
  461000    299.73514   -193607.18            0   -192536.03   -1511.8176    87.796288    90.132245    88.647981    3.4845831    2287.0041    53357.864 
  462000    302.47484   -193604.13            0   -192523.19   -1383.1509    87.796288    90.132245    88.647981     3.126583    2292.7204    53355.833 
  463000    298.99145   -193609.39            0    -192540.9   -1288.5409    87.796288    90.132245    88.647981    2.9834749    2298.3584    53351.966 
  464000    298.44238   -193604.45            0   -192537.92   -1507.0687    87.796288    90.132245    88.647981    2.7585575    2303.9316     53346.59 
  465000    299.44585   -193600.87            0   -192530.75   -1194.2253    87.796288    90.132245    88.647981    3.3099758    2309.4653    53340.301 
  466000    299.97014   -193606.78            0   -192534.79   -1585.9448    87.796288    90.132245    88.647981    2.8532933    2314.6956    53327.026 
  467000    304.34153   -193603.83            0   -192516.21   -1277.2802    87.796288    90.132245    88.647981    3.3524424    2320.1016    53317.825 
  468000    300.67253   -193617.54            0   -192543.04   -1659.1009    87.796288    90.132245    88.647981    3.0816095    2325.8821    53317.231 
  469000    298.69054   -193601.49            0   -192534.08   -1474.0366    87.796288    90.132245    88.647981    3.4299064    2331.8057    53319.881 
  470000    299.71179   -193613.22            0   -192542.15   -1471.7466    87.796288    90.132245    88.647981    3.0390342    2337.3992    53314.962 
  471000    299.71021   -193610.31            0   -192539.25   -1276.0749    87.796288    90.132245    88.647981    3.2035776    2343.1042    53312.577 
  472000    298.43376   -193612.13            0   -192545.63   -1716.0059    87.796288    90.132245    88.647981    2.7573553    2348.3969    53300.818 
  473000    302.69383   -193608.81            0   -192527.09   -1473.8027    87.796288    90.132245    88.647981    3.6023157    2353.8649    53293.059 
  474000    298.14975   -193619.88            0   -192554.39   -1617.3895    87.796288    90.132245    88.647981    3.0883202    2359.2766    53284.039 
  475000    302.70421   -193608.67            0   -192526.91   -1561.9152    87.796288    90.132245    88.647981    3.3466686    2365.0395    53282.949 
  476000    300.31558   -193617.67            0   -192544.45   -1479.5698    87.796288    90.132245    88.647981    2.9530569    2370.8708    53283.373 
  477000    301.39792   -193614.74            0   -192537.64   -1413.4822    87.796288    90.132245    88.647981    3.1439224    2376.4369    53277.824 
  478000    301.62951   -193609.89            0   -192531.97   -1482.8112    87.796288    90.132245    88.647981    3.1683841    2381.9228    53270.479 
  479000    300.56173   -193618.34            0   -192544.23   -1363.6918    87.796288    90.132245    88.647981    3.3341529    2387.4105    53263.185 
  480000    301.63493   -193606.51            0   -192528.57   -1521.8598    87.796288    90.132245    88.647981     2.733343    2393.0656    53259.623 
  481000    298.44463   -193610.09            0   -192543.55   -1305.9824    87.796288    90.132245    88.647981    2.9140789    2398.5816    53252.964 
  482000    298.80887   -193609.72            0   -192541.88   -1337.3565    87.796288    90.132245    88.647981    3.0390791    2404.2529    53249.749 
  483000    297.72997   -193618.34            0   -192554.36   -1502.9382    87.796288    90.132245    88.647981    3.2808667     2410.178    53252.132 
  484000    302.06075   -193611.86            0    -192532.4   -1480.2627    87.796288    90.132245    88.647981    2.8444097    2415.5837    53243.026 
  485000    299.38445   -193613.27            0   -192543.37   -1207.1385    87.796288    90.132245    88.647981    3.4179434    2421.2897    53240.542 
  486000    299.43831   -193615.55            0   -192545.47   -1384.4016    87.796288    90.132245    88.647981    3.1744965    2426.7864    53233.452 
  487000    299.02007   -193616.69            0    -192548.1   -1465.8357    87.796288    90.132245    88.647981    3.2350782    2432.2497    53225.638 
  488000    298.77435   -193607.13            0   -192539.41   -1279.8873    87.796288    90.132245    88.647981    3.1979502    2437.6456    53216.364 
  489000    302.21761   -193611.21            0   -192531.19   -1385.6609    87.796288    90.132245    88.647981     3.178752    2443.1701    53209.908 
  490000    300.16323   -193620.32            0   -192547.64   -1419.6188    87.796288    90.132245    88.647981    3.5230481    2448.9711    53209.462 
  491000    299.48582   -193605.66            0    -192535.4   -1440.3124    87.796288    90.132245    88.647981    2.9506564    2454.4783    53202.625 
[...]
 9929000     302.6984    -193761.8            0   -192680.06   -2071.3958    87.796288    90.132245    88.647981    2.7414152    54957.829    673.13466 
 9930000    301.14215   -193757.45            0   -192681.27   -2062.2149    87.796288    90.132245    88.647981    2.8570614    54963.261    667.56997 
 9931000    299.71311   -193746.05            0   -192674.98   -2023.3591    87.796288    90.132245    88.647981    3.0682512    54969.002    662.00904 
 9932000     299.9099   -193752.22            0   -192680.45   -2221.1552    87.796288    90.132245    88.647981    3.0596809    54974.563    656.44591 
 9933000    299.27918   -193756.27            0   -192686.75   -2159.8104    87.796288    90.132245    88.647981     3.173472    54980.148    650.88306 
 9934000    300.79958   -193749.96            0   -192675.01   -2151.7021    87.796288    90.132245    88.647981    3.5249154    54985.917    645.32238 
 9935000    299.94482   -193754.81            0   -192682.91   -2166.8957    87.796288    90.132245    88.647981     3.232442    54991.486    639.75932 
 9936000    300.50738   -193745.02            0   -192671.11   -2155.2679    87.796288    90.132245    88.647981    3.7216691    54997.125    634.19707 
 9937000    298.96795   -193756.01            0    -192687.6   -1817.5389    87.796288    90.132245    88.647981    2.9571734    55002.537    628.63221 
 9938000    300.78723   -193755.55            0   -192680.64    -2159.536    87.796288    90.132245    88.647981    3.2802484    55008.523    623.07389 
 9939000    298.96803   -193752.49            0   -192684.08   -2082.1124    87.796288    90.132245    88.647981    2.9274837    55014.282    617.51292 
 9940000    300.56377   -193759.16            0   -192685.05   -2191.4101    87.796288    90.132245    88.647981    3.2921745    55020.099    611.95257 
 9941000    300.47805   -193741.62            0   -192667.81   -2020.5674    87.796288    90.132245    88.647981    3.1563354    55025.744    606.39027 
 9942000    300.02989   -193754.19            0   -192681.98   -1991.5719    87.796288    90.132245    88.647981    3.0674669    55031.224    600.82614 
 9943000    301.96517   -193749.76            0   -192670.64   -2183.0181    87.796288    90.132245    88.647981    2.8251421    55036.372    595.25844 
 9944000    297.83867   -193756.92            0   -192692.54    -2251.421    87.796288    90.132245    88.647981    3.1009997    55041.902    589.69492 
 9945000    300.15013      -193751            0   -192678.37   -2192.7775    87.796288    90.132245    88.647981    2.9095401    55047.813    584.13546 
 9946000    299.32425   -193765.26            0   -192695.58   -2071.1798    87.796288    90.132245    88.647981     3.184171    55053.539    578.57398 
 9947000    300.66008   -193753.33            0   -192678.87   -2171.9416    87.796288    90.132245    88.647981    2.7409341    55059.177    573.01154 
 9948000    300.40471    -193751.8            0   -192678.25    -2002.652    87.796288    90.132245    88.647981    2.8962087    55064.761    567.44854 
 9949000    302.18263   -193756.89            0   -192676.99   -2166.6438    87.796288    90.132245    88.647981    2.8503096     55069.95     561.8815 
 9950000     301.0059   -193764.12            0   -192688.43   -1997.5067    87.796288    90.132245    88.647981    2.9003279    55075.404    556.31721 
 9951000    300.36709   -193753.04            0   -192679.63   -2128.6938    87.796288    90.132245    88.647981    2.5544527    55080.903     550.7534 
 9952000    296.91474    -193753.8            0   -192692.73   -2258.6943    87.796288    90.132245    88.647981    3.1053624    55086.746      545.193 
 9953000    296.77887   -193755.02            0   -192694.44   -1921.9204    87.796288    90.132245    88.647981    3.4738229    55092.437    539.63106 
 9954000    299.50875   -193754.61            0   -192684.27   -2103.4998    87.796288    90.132245    88.647981    2.9489069    55097.773    534.06565 
 9955000    300.48201   -193753.41            0   -192679.59   -2073.8746    87.796288    90.132245    88.647981    2.9468121     55103.07    528.49991 
 9956000    299.82682   -193747.94            0   -192676.46   -2318.0746    87.796288    90.132245    88.647981    3.0851961    55108.481    522.93531 
 9957000    300.95871   -193749.99            0   -192674.46   -2106.0083    87.796288    90.132245    88.647981    3.0365823    55113.872    517.37055 
 9958000    299.35474   -193749.96            0   -192680.17    -2122.189    87.796288    90.132245    88.647981    3.0649177    55119.586    511.80883 
 9959000    297.77695   -193757.82            0   -192693.67   -2060.3951    87.796288    90.132245    88.647981    3.3596588    55125.415    506.24814 
 9960000     298.7878   -193744.37            0    -192676.6   -2246.5296    87.796288    90.132245    88.647981    2.8111356    55131.459    500.68933 
 9961000    302.02956   -193756.69            0   -192677.34   -2155.0198    87.796288    90.132245    88.647981    2.7482495    55136.969    495.12564 
 9962000    302.87204   -193761.26            0    -192678.9   -1969.1903    87.796288    90.132245    88.647981    2.9217956    55142.711    489.56402 
 9963000    301.30691   -193754.45            0   -192677.68   -2072.9095    87.796288    90.132245    88.647981    2.9239857    55148.446     484.0023 
 9964000    298.15296   -193750.41            0   -192684.92   -2273.3772    87.796288    90.132245    88.647981    3.1964325    55153.997    478.43895 
 9965000    299.15499   -193749.93            0   -192680.85   -1982.1459    87.796288    90.132245    88.647981    3.0389121    55159.398    472.87432 
 9966000    298.00949   -193760.29            0   -192695.31   -2191.3849    87.796288    90.132245    88.647981    3.1073552    55164.949    467.31099 
 9967000    298.39636   -193748.51            0   -192682.14    -2036.238    87.796288    90.132245    88.647981    3.1431472    55170.583    461.74835 
 9968000    297.44696   -193753.53            0   -192690.55   -2175.6086    87.796288    90.132245    88.647981    2.7513032    55176.224    456.18576 
 9969000     298.9903   -193756.73            0   -192688.24   -2170.8503    87.796288    90.132245    88.647981    2.7842015    55181.814    450.62274 
 9970000    302.26194   -193751.57            0   -192671.39   -2108.3936    87.796288    90.132245    88.647981     2.742293    55187.345    445.05924 
 9971000     298.3121   -193752.53            0   -192686.47   -2197.1995    87.796288    90.132245    88.647981    2.9816832    55192.794    439.49508 
 9972000    296.65671    -193765.2            0   -192705.05   -1994.7856    87.796288    90.132245    88.647981    2.9086259    55198.279    433.93124 
 9973000    298.44549   -193753.57            0   -192687.03   -1983.8361    87.796288    90.132245    88.647981    3.2182978    55203.904     428.3685 
 9974000    298.31141   -193756.85            0   -192690.79   -2179.3207    87.796288    90.132245    88.647981    3.2715176    55209.794    422.80777 
 9975000    300.50992   -193747.77            0   -192673.85   -1899.3381    87.796288    90.132245    88.647981    3.1106012    55215.365    417.24457 
 9976000    300.18997   -193757.47            0    -192684.7   -2170.4341    87.796288    90.132245    88.647981    3.2241703    55221.042    411.68216 
 9977000    303.36052   -193755.17            0   -192671.06   -2124.2063    87.796288    90.132245    88.647981    3.1566311    55226.568    406.11861 
 9978000    299.16022   -193757.71            0   -192688.61    -1935.587    87.796288    90.132245    88.647981    3.2950959    55231.687    400.55212 
 9979000    305.21902   -193756.19            0   -192665.44   -2153.7092    87.796288    90.132245    88.647981    3.1118651    55236.768    394.98545 
 9980000    299.97038    -193751.8            0   -192679.81   -2149.3097    87.796288    90.132245    88.647981    2.9064642    55241.944    389.41954 
 9981000    300.21735   -193761.44            0   -192688.56   -2197.3567    87.796288    90.132245    88.647981    3.2835722    55247.599    383.85705 
 9982000    296.01437   -193757.92            0   -192700.07   -2103.3608    87.796288    90.132245    88.647981    2.9591146    55253.077    378.29332 
 9983000    301.33806   -193753.88            0   -192677.01   -2140.8909    87.796288    90.132245    88.647981     2.959163    55258.201    372.72722 
 9984000    300.19371   -193761.19            0    -192688.4   -2181.1307    87.796288    90.132245    88.647981    3.1512648    55263.617    367.16315 
 9985000     297.7479   -193754.07            0   -192690.02   -2089.5959    87.796288    90.132245    88.647981     3.664409    55268.734    361.59715 
 9986000    301.71001   -193757.66            0   -192679.45   -2215.2939    87.796288    90.132245    88.647981    3.3471968    55273.808    356.03097 
 9987000    302.59203   -193761.34            0   -192679.98   -2234.5077    87.796288    90.132245    88.647981     2.841265    55279.043    350.46591 
 9988000    297.34429   -193750.23            0   -192687.62   -2011.6605    87.796288    90.132245    88.647981    2.9993516     55284.56    344.90267 
 9989000    299.19462   -193752.62            0    -192683.4   -1965.9801    87.796288    90.132245    88.647981    3.0670093    55290.335    339.34102 
 9990000    301.15506   -193754.52            0   -192678.29   -2036.9684    87.796288    90.132245    88.647981    2.7730847    55295.719    333.77697 
 9991000    298.64148   -193747.57            0   -192680.33   -2437.3147    87.796288    90.132245    88.647981    3.2074818    55301.265    328.21393 
 9992000    300.71579    -193758.4            0   -192683.75   -2100.9666    87.796288    90.132245    88.647981    3.5469508    55306.638    322.64987 
 9993000    301.88419   -193751.07            0   -192672.24   -2166.1883    87.796288    90.132245    88.647981    2.8630261    55311.738    317.08429 
 9994000    298.67735   -193752.07            0    -192684.7   -2078.3785    87.796288    90.132245    88.647981    3.0398743    55316.942    311.51939 
 9995000    303.06533   -193749.54            0   -192666.49   -1897.1228    87.796288    90.132245    88.647981    2.6704815    55322.108    305.95434 
 9996000    300.47902   -193763.37            0   -192689.56   -2160.3363    87.796288    90.132245    88.647981     2.977179    55327.629    300.39131 
 9997000    299.71827   -193750.38            0   -192679.29   -2206.2683    87.796288    90.132245    88.647981    2.5755383    55333.433    294.82979 
 9998000    302.35653   -193758.05            0   -192677.53   -1976.3912    87.796288    90.132245    88.647981    3.0204092    55338.888     289.2664 
 9999000    300.70447   -193747.18            0   -192672.56   -2334.5443    87.796288    90.132245    88.647981    3.2362693    55344.565    283.70418 
10000000    300.32689   -193766.81            0   -192693.55   -2115.7759    87.796288    90.132245    88.647981    3.0354317    55350.039     278.1409 
10001000    299.17912   -193754.01            0   -192684.85   -2141.6731    87.796288    90.132245    88.647981    2.9904462    55355.532    272.57774 
10002000    300.33168   -193756.15            0   -192682.87   -1962.0046    87.796288    90.132245    88.647981    2.9094018     55361.05    267.01471 
10003000    296.98628    -193764.5            0   -192703.17   -2143.4505    87.796288    90.132245    88.647981    3.2384332    55366.777    261.45268 
10004000    300.80177   -193751.77            0   -192676.81   -1935.2385    87.796288    90.132245    88.647981    3.2920268    55372.466    255.89044 
10005000    299.75521   -193752.57            0   -192681.35   -2341.1882    87.796288    90.132245    88.647981     2.810654    55378.026    250.32759 
10006000     300.9909   -193757.53            0   -192681.89    -1928.351    87.796288    90.132245    88.647981    3.6706576    55383.603    244.76482 
10007000    296.73149    -193759.9            0   -192699.49   -2210.0112    87.796288    90.132245    88.647981    3.4300013    55389.018    239.20134 
10008000    300.25695   -193749.91            0    -192676.9   -2020.1735    87.796288    90.132245    88.647981     3.066506    55394.463    233.63802 
10009000    299.76467    -193759.6            0   -192688.35   -2187.6934    87.796288    90.132245    88.647981    3.3377077    55399.736    228.07402 
10010000    297.96504   -193763.39            0   -192698.56   -2001.8075    87.796288    90.132245    88.647981    3.0361316    55405.277    222.51115 
10011000    300.13683      -193752            0   -192679.41   -2135.2412    87.796288    90.132245    88.647981    3.1635154    55411.123    216.94948 
10012000    299.36666   -193757.21            0   -192687.38   -1993.7239    87.796288    90.132245    88.647981    3.0008977    55416.744     211.3869 
10013000    299.84092   -193759.29            0   -192687.76   -2231.8592    87.796288    90.132245    88.647981    3.1410247    55422.463    205.82466 
10014000    302.93161   -193752.35            0   -192669.78   -1953.3206    87.796288    90.132245    88.647981    2.7092451    55427.857    200.26123 
10015000    299.64268   -193764.08            0   -192693.26   -2132.2986    87.796288    90.132245    88.647981    2.9148652     55433.12    194.69736 
10016000    297.28293   -193753.25            0   -192690.86   -2126.0568    87.796288    90.132245    88.647981    3.6337761    55438.577    189.13422 
10017000    300.27555   -193747.53            0   -192674.45   -2234.6437    87.796288    90.132245    88.647981    2.8483677     55444.08    183.57125 
10018000    300.15975    -193753.1            0   -192680.43   -2146.8474    87.796288    90.132245    88.647981    3.1624625     55450.02     178.0097 
10019000    300.53989   -193750.67            0   -192676.65   -1920.7849    87.796288    90.132245    88.647981    3.2669253    55455.659    172.44713 
10020000    300.61325   -193752.92            0   -192678.63   -2273.9746    87.796288    90.132245    88.647981    2.9816526    55461.253    166.88441 
10021000    301.52016   -193769.13            0    -192691.6   -2066.7764    87.796288    90.132245    88.647981    2.7264358    55466.554    161.32084 
10022000     298.2695   -193759.76            0   -192693.85   -2128.8177    87.796288    90.132245    88.647981      2.95682    55471.967    155.75763 
10023000    300.72845   -193759.01            0   -192684.31   -2290.6193    87.796288    90.132245    88.647981    3.2075301    55477.456    150.19466 
10024000    298.15975   -193763.86            0   -192698.34   -2153.7095    87.796288    90.132245    88.647981    2.8968329    55483.084    144.63206 
10025000    300.62211   -193757.55            0   -192683.23     -2077.14    87.796288    90.132245    88.647981    3.3115299    55488.938    139.07002 
10026000    301.13875   -193753.37            0   -192677.21   -1999.8961    87.796288    90.132245    88.647981    3.0734233    55494.577     133.5074 
10027000    300.86232   -193761.83            0   -192686.65    -2193.924    87.796288    90.132245    88.647981    2.8231753    55499.845    127.94391 
10028000    300.64676   -193768.79            0   -192694.38   -2148.1024    87.796288    90.132245    88.647981    2.7868631    55505.354    122.38102 
10029000    301.23897   -193752.65            0   -192676.13   -2000.6583    87.796288    90.132245    88.647981    3.8805125    55510.846    116.81809 
10030000    299.31634   -193754.23            0   -192684.58   -2167.4182    87.796288    90.132245    88.647981    3.0011054    55516.316    111.25514 
10031000    302.12474   -193754.51            0   -192674.82   -1993.3901    87.796288    90.132245    88.647981    2.8274588    55521.728     105.6921 
10032000    300.78585   -193755.21            0    -192680.3   -2228.0887    87.796288    90.132245    88.647981    2.8996284    55527.606    100.12992 
10033000    300.83418   -193758.01            0   -192682.93    -2241.425    87.796288    90.132245    88.647981    3.0216725    55533.047    94.566944 
10034000    303.27005   -193750.56            0   -192666.78   -2058.0282    87.796288    90.132245    88.647981    3.2734799    55538.495    89.003999 
10035000    299.11806   -193747.92            0   -192678.97   -2163.1205    87.796288    90.132245    88.647981    2.9679352    55544.337    83.441667 
10036000    298.67179   -193766.36            0   -192699.01   -2266.5553    87.796288    90.132245    88.647981    2.7525008    55549.768    77.878705 
10037000     302.8072   -193745.24            0   -192663.11   -2008.6888    87.796288    90.132245    88.647981    3.2061875    55555.185    72.315751 
10038000    301.04954    -193753.6            0   -192677.75   -2061.1887    87.796288    90.132245    88.647981    3.2989731    55560.652    66.752886 
10039000    298.67051   -193762.51            0   -192695.16   -2032.9428    87.796288    90.132245    88.647981    2.8952181    55566.295    61.190234 
10040000     297.9981   -193756.71            0   -192691.77   -2116.4908    87.796288    90.132245    88.647981    2.6149649    55572.052     55.62768 
10041000    300.25955   -193751.62            0   -192678.59    -1987.093    87.796288    90.132245    88.647981    2.8224949    55577.651    50.064944 
10042000    296.57736   -193760.07            0    -192700.2   -1886.7829    87.796288    90.132245    88.647981    3.2154768    55583.265    44.502214 
10043000    302.58066   -193753.13            0   -192671.81   -2033.5815    87.796288    90.132245    88.647981    3.2975137    55588.751    38.939383 
10044000    301.92947   -193759.99            0      -192681   -1951.5702    87.796288    90.132245    88.647981    3.0664583     55594.11    33.376492 
10045000    301.01824   -193753.26            0   -192677.53   -2036.3892    87.796288    90.132245    88.647981    3.0151461      55599.4    27.813607 
10046000    300.85136    -193761.9            0   -192686.76   -2106.3126    87.796288    90.132245    88.647981    3.1493266    55605.152    22.250961 
10047000    299.24867   -193763.75            0   -192694.34   -2281.2138    87.796288    90.132245    88.647981    2.9304702    55611.004    16.688308 
10048000    299.80582   -193751.83            0   -192680.43   -2269.0562    87.796288    90.132245    88.647981    3.1619684    55616.559    11.125537 
10049000    299.30978   -193754.35            0   -192684.72   -2176.1223    87.796288    90.132245    88.647981     3.168355    55622.085    5.5627648 
10050000    299.73633   -193760.19            0   -192689.04   -2566.5547    87.796288    90.132245    88.647981    2.8755578    55627.625            0 
Loop time of 55627.6 on 160 procs for 10000000 steps with 27648 atoms

Performance: 15.532 ns/day, 1.545 hours/ns, 179.767 timesteps/s
99.0% CPU use with 160 MPI tasks x 1 OpenMP threads

MPI task timing breakdown:
Section |  min time  |  avg time  |  max time  |%varavg| %total
---------------------------------------------------------------
Pair    | 9628.3     | 10529      | 11860      | 398.4 | 18.93
Kspace  | 34659      | 36305      | 37805      | 308.2 | 65.26
Neigh   | 297.62     | 322.9      | 353.81     |  60.7 |  0.58
Comm    | 6512.2     | 7410.2     | 8511       | 483.5 | 13.32
Output  | 0.76143    | 0.77053    | 0.96513    |   1.9 |  0.00
Modify  | 658.51     | 908.77     | 1269       | 464.1 |  1.63
Other   |            | 150.2      |            |       |  0.27

Nlocal:    172.8 ave 186 max 156 min
Histogram: 3 3 11 13 22 31 29 28 12 8
Nghost:    3368.07 ave 3426 max 3326 min
Histogram: 8 12 28 28 31 25 11 8 6 3
Neighs:    39062.9 ave 42951 max 34787 min
Histogram: 5 9 11 16 25 32 33 15 8 6

Total # of neighbors = 6250060
Ave neighs/atom = 226.058
Neighbor list builds = 227635
Dangerous builds = 0

# Final Commands
variable final_energy equal etotal
print "final_energy: ${final_energy}"
final_energy: -192689.036182569
print "END_OF_COMP"
END_OF_COMP
Total wall time: 15:31:55
