  54  54   1   0
  0.2002146E+02  0.1029184E-08  0.1026373E-08  0.1023591E-08  0.5000000E-15
   1.0000000000000000E-004
  CAR 
 unknown system                          
     11.27871908    -50.83440623  301      0.74536824      1.00000000
    -50.834  0.0000E+00  0.0000E+00
    -50.627  0.0000E+00  0.0000E+00
    -50.420  0.0000E+00  0.0000E+00
    -50.213  0.0000E+00  0.0000E+00
    -50.006  0.0000E+00  0.0000E+00
    -49.799  0.0000E+00  0.0000E+00
    -49.592  0.0000E+00  0.0000E+00
    -49.385  0.0000E+00  0.0000E+00
    -49.178  0.0000E+00  0.0000E+00
    -48.971  0.0000E+00  0.0000E+00
    -48.764  0.0000E+00  0.0000E+00
    -48.557  0.0000E+00  0.0000E+00
    -48.350  0.0000E+00  0.0000E+00
    -48.143  0.3650E-05  0.7557E-06
    -47.936  0.5885E-01  0.1218E-01
    -47.729  0.5566E-01  0.2371E-01
    -47.522  0.6237E-02  0.2500E-01
    -47.315  0.0000E+00  0.2500E-01
    -47.108  0.0000E+00  0.2500E-01
    -46.901  0.0000E+00  0.2500E-01
    -46.694  0.0000E+00  0.2500E-01
    -46.486  0.0000E+00  0.2500E-01
    -46.279  0.0000E+00  0.2500E-01
    -46.072  0.0000E+00  0.2500E-01
    -45.865  0.0000E+00  0.2500E-01
    -45.658  0.0000E+00  0.2500E-01
    -45.451  0.0000E+00  0.2500E-01
    -45.244  0.0000E+00  0.2500E-01
    -45.037  0.0000E+00  0.2500E-01
    -44.830  0.0000E+00  0.2500E-01
    -44.623  0.0000E+00  0.2500E-01
    -44.416  0.0000E+00  0.2500E-01
    -44.209  0.0000E+00  0.2500E-01
    -44.002  0.0000E+00  0.2500E-01
    -43.795  0.1102E-13  0.2500E-01
    -43.588  0.2392E-02  0.2550E-01
    -43.381  0.2176E-01  0.3000E-01
    -43.174  0.5917E-07  0.3000E-01
    -42.967  0.3271E-12  0.3000E-01
    -42.760  0.9908E-02  0.3205E-01
    -42.553  0.1647E+00  0.6616E-01
    -42.346  0.1898E+00  0.1055E+00
    -42.139  0.2196E-01  0.1100E+00
    -41.932  0.2192E-07  0.1100E+00
    -41.724  0.0000E+00  0.1100E+00
    -41.517  0.0000E+00  0.1100E+00
    -41.310  0.0000E+00  0.1100E+00
    -41.103  0.0000E+00  0.1100E+00
    -40.896  0.0000E+00  0.1100E+00
    -40.689  0.0000E+00  0.1100E+00
    -40.482  0.0000E+00  0.1100E+00
    -40.275  0.0000E+00  0.1100E+00
    -40.068  0.0000E+00  0.1100E+00
    -39.861  0.0000E+00  0.1100E+00
    -39.654  0.0000E+00  0.1100E+00
    -39.447  0.0000E+00  0.1100E+00
    -39.240  0.0000E+00  0.1100E+00
    -39.033  0.0000E+00  0.1100E+00
    -38.826  0.0000E+00  0.1100E+00
    -38.619  0.0000E+00  0.1100E+00
    -38.412  0.0000E+00  0.1100E+00
    -38.205  0.0000E+00  0.1100E+00
    -37.998  0.0000E+00  0.1100E+00
    -37.791  0.0000E+00  0.1100E+00
    -37.584  0.0000E+00  0.1100E+00
    -37.377  0.0000E+00  0.1100E+00
    -37.170  0.0000E+00  0.1100E+00
    -36.962  0.0000E+00  0.1100E+00
    -36.755  0.0000E+00  0.1100E+00
    -36.548  0.0000E+00  0.1100E+00
    -36.341  0.0000E+00  0.1100E+00
    -36.134  0.0000E+00  0.1100E+00
    -35.927  0.0000E+00  0.1100E+00
    -35.720  0.0000E+00  0.1100E+00
    -35.513  0.0000E+00  0.1100E+00
    -35.306  0.0000E+00  0.1100E+00
    -35.099  0.0000E+00  0.1100E+00
    -34.892  0.0000E+00  0.1100E+00
    -34.685  0.0000E+00  0.1100E+00
    -34.478  0.0000E+00  0.1100E+00
    -34.271  0.0000E+00  0.1100E+00
    -34.064  0.0000E+00  0.1100E+00
    -33.857  0.0000E+00  0.1100E+00
    -33.650  0.0000E+00  0.1100E+00
    -33.443  0.0000E+00  0.1100E+00
    -33.236  0.0000E+00  0.1100E+00
    -33.029  0.0000E+00  0.1100E+00
    -32.822  0.0000E+00  0.1100E+00
    -32.615  0.0000E+00  0.1100E+00
    -32.408  0.0000E+00  0.1100E+00
    -32.200  0.0000E+00  0.1100E+00
    -31.993  0.0000E+00  0.1100E+00
    -31.786  0.0000E+00  0.1100E+00
    -31.579  0.0000E+00  0.1100E+00
    -31.372  0.0000E+00  0.1100E+00
    -31.165  0.0000E+00  0.1100E+00
    -30.958  0.0000E+00  0.1100E+00
    -30.751  0.0000E+00  0.1100E+00
    -30.544  0.0000E+00  0.1100E+00
    -30.337  0.0000E+00  0.1100E+00
    -30.130  0.0000E+00  0.1100E+00
    -29.923  0.0000E+00  0.1100E+00
    -29.716  0.0000E+00  0.1100E+00
    -29.509  0.0000E+00  0.1100E+00
    -29.302  0.0000E+00  0.1100E+00
    -29.095  0.0000E+00  0.1100E+00
    -28.888  0.0000E+00  0.1100E+00
    -28.681  0.0000E+00  0.1100E+00
    -28.474  0.0000E+00  0.1100E+00
    -28.267  0.0000E+00  0.1100E+00
    -28.060  0.0000E+00  0.1100E+00
    -27.853  0.0000E+00  0.1100E+00
    -27.646  0.0000E+00  0.1100E+00
    -27.438  0.0000E+00  0.1100E+00
    -27.231  0.0000E+00  0.1100E+00
    -27.024  0.4102E-15  0.1100E+00
    -26.817  0.2046E-02  0.1104E+00
    -26.610  0.2306E+00  0.1582E+00
    -26.403  0.1275E+00  0.1846E+00
    -26.196  0.2146E-02  0.1850E+00
    -25.989  0.0000E+00  0.1850E+00
    -25.782  0.0000E+00  0.1850E+00
    -25.575  0.0000E+00  0.1850E+00
    -25.368  0.0000E+00  0.1850E+00
    -25.161  0.0000E+00  0.1850E+00
    -24.954  0.0000E+00  0.1850E+00
    -24.747  0.0000E+00  0.1850E+00
    -24.540  0.0000E+00  0.1850E+00
    -24.333  0.0000E+00  0.1850E+00
    -24.126  0.0000E+00  0.1850E+00
    -23.919  0.0000E+00  0.1850E+00
    -23.712  0.0000E+00  0.1850E+00
    -23.505  0.0000E+00  0.1850E+00
    -23.298  0.0000E+00  0.1850E+00
    -23.091  0.0000E+00  0.1850E+00
    -22.883  0.0000E+00  0.1850E+00
    -22.676  0.0000E+00  0.1850E+00
    -22.469  0.0000E+00  0.1850E+00
    -22.262  0.0000E+00  0.1850E+00
    -22.055  0.0000E+00  0.1850E+00
    -21.848  0.0000E+00  0.1850E+00
    -21.641  0.0000E+00  0.1850E+00
    -21.434  0.0000E+00  0.1850E+00
    -21.227  0.0000E+00  0.1850E+00
    -21.020  0.0000E+00  0.1850E+00
    -20.813  0.0000E+00  0.1850E+00
    -20.606  0.0000E+00  0.1850E+00
    -20.399  0.0000E+00  0.1850E+00
    -20.192  0.0000E+00  0.1850E+00
    -19.985  0.0000E+00  0.1850E+00
    -19.778  0.0000E+00  0.1850E+00
    -19.571  0.0000E+00  0.1850E+00
    -19.364  0.0000E+00  0.1850E+00
    -19.157  0.0000E+00  0.1850E+00
    -18.950  0.0000E+00  0.1850E+00
    -18.743  0.0000E+00  0.1850E+00
    -18.536  0.0000E+00  0.1850E+00
    -18.329  0.0000E+00  0.1850E+00
    -18.121  0.0000E+00  0.1850E+00
    -17.914  0.0000E+00  0.1850E+00
    -17.707  0.0000E+00  0.1850E+00
    -17.500  0.0000E+00  0.1850E+00
    -17.293  0.0000E+00  0.1850E+00
    -17.086  0.0000E+00  0.1850E+00
    -16.879  0.0000E+00  0.1850E+00
    -16.672  0.0000E+00  0.1850E+00
    -16.465  0.0000E+00  0.1850E+00
    -16.258  0.0000E+00  0.1850E+00
    -16.051  0.0000E+00  0.1850E+00
    -15.844  0.0000E+00  0.1850E+00
    -15.637  0.0000E+00  0.1850E+00
    -15.430  0.0000E+00  0.1850E+00
    -15.223  0.0000E+00  0.1850E+00
    -15.016  0.0000E+00  0.1850E+00
    -14.809  0.0000E+00  0.1850E+00
    -14.602  0.0000E+00  0.1850E+00
    -14.395  0.0000E+00  0.1850E+00
    -14.188  0.0000E+00  0.1850E+00
    -13.981  0.0000E+00  0.1850E+00
    -13.774  0.1058E-06  0.1850E+00
    -13.567  0.2762E-01  0.1907E+00
    -13.359  0.2234E-01  0.1953E+00
    -13.152  0.1029E+00  0.2166E+00
    -12.945  0.1282E+00  0.2432E+00
    -12.738  0.2226E+00  0.2893E+00
    -12.531  0.9393E-01  0.3087E+00
    -12.324  0.6310E-01  0.3218E+00
    -12.117  0.1698E-01  0.3253E+00
    -11.910  0.6621E-01  0.3390E+00
    -11.703  0.2897E-01  0.3450E+00
    -11.496  0.4216E-07  0.3450E+00
    -11.289  0.0000E+00  0.3450E+00
    -11.082  0.0000E+00  0.3450E+00
    -10.875  0.0000E+00  0.3450E+00
    -10.668  0.0000E+00  0.3450E+00
    -10.461  0.0000E+00  0.3450E+00
    -10.254  0.0000E+00  0.3450E+00
    -10.047  0.0000E+00  0.3450E+00
     -9.840  0.0000E+00  0.3450E+00
     -9.633  0.0000E+00  0.3450E+00
     -9.426  0.0000E+00  0.3450E+00
     -9.219  0.0000E+00  0.3450E+00
     -9.012  0.0000E+00  0.3450E+00
     -8.805  0.0000E+00  0.3450E+00
     -8.597  0.0000E+00  0.3450E+00
     -8.390  0.0000E+00  0.3450E+00
     -8.183  0.0000E+00  0.3450E+00
     -7.976  0.0000E+00  0.3450E+00
     -7.769  0.0000E+00  0.3450E+00
     -7.562  0.0000E+00  0.3450E+00
     -7.355  0.0000E+00  0.3450E+00
     -7.148  0.0000E+00  0.3450E+00
     -6.941  0.0000E+00  0.3450E+00
     -6.734  0.0000E+00  0.3450E+00
     -6.527  0.0000E+00  0.3450E+00
     -6.320  0.0000E+00  0.3450E+00
     -6.113  0.0000E+00  0.3450E+00
     -5.906  0.0000E+00  0.3450E+00
     -5.699  0.0000E+00  0.3450E+00
     -5.492  0.0000E+00  0.3450E+00
     -5.285  0.0000E+00  0.3450E+00
     -5.078  0.0000E+00  0.3450E+00
     -4.871  0.0000E+00  0.3450E+00
     -4.664  0.0000E+00  0.3450E+00
     -4.457  0.0000E+00  0.3450E+00
     -4.250  0.0000E+00  0.3450E+00
     -4.043  0.0000E+00  0.3450E+00
     -3.835  0.0000E+00  0.3450E+00
     -3.628  0.0000E+00  0.3450E+00
     -3.421  0.4019E-10  0.3450E+00
     -3.214  0.1860E-02  0.3454E+00
     -3.007  0.4314E-01  0.3543E+00
     -2.800  0.6052E-01  0.3668E+00
     -2.593  0.8733E-01  0.3849E+00
     -2.386  0.1850E+00  0.4232E+00
     -2.179  0.1607E+00  0.4565E+00
     -1.972  0.1378E+00  0.4850E+00
     -1.765  0.1486E+00  0.5158E+00
     -1.558  0.1179E+00  0.5402E+00
     -1.351  0.1168E+00  0.5644E+00
     -1.144  0.1473E+00  0.5949E+00
     -0.937  0.1686E+00  0.6298E+00
     -0.730  0.1727E+00  0.6655E+00
     -0.523  0.1616E+00  0.6990E+00
     -0.316  0.1786E+00  0.7360E+00
     -0.109  0.1558E+00  0.7682E+00
      0.098  0.1408E+00  0.7974E+00
      0.305  0.1177E+00  0.8218E+00
      0.512  0.1566E-01  0.8250E+00
      0.719  0.3074E-07  0.8250E+00
      0.927  0.0000E+00  0.8250E+00
      1.134  0.0000E+00  0.8250E+00
      1.341  0.0000E+00  0.8250E+00
      1.548  0.0000E+00  0.8250E+00
      1.755  0.0000E+00  0.8250E+00
      1.962  0.0000E+00  0.8250E+00
      2.169  0.0000E+00  0.8250E+00
      2.376  0.0000E+00  0.8250E+00
      2.583  0.0000E+00  0.8250E+00
      2.790  0.0000E+00  0.8250E+00
      2.997  0.0000E+00  0.8250E+00
      3.204  0.0000E+00  0.8250E+00
      3.411  0.0000E+00  0.8250E+00
      3.618  0.3140E-06  0.8250E+00
      3.825  0.3518E-01  0.8323E+00
      4.032  0.1066E+00  0.8544E+00
      4.239  0.1632E+00  0.8881E+00
      4.446  0.5725E-01  0.9000E+00
      4.653  0.8834E-05  0.9000E+00
      4.860  0.2371E-05  0.9000E+00
      5.067  0.3041E-02  0.9006E+00
      5.274  0.1126E-01  0.9030E+00
      5.481  0.8462E-01  0.9205E+00
      5.689  0.7867E-01  0.9368E+00
      5.896  0.6168E-01  0.9495E+00
      6.103  0.2213E-02  0.9500E+00
      6.310  0.6435E-07  0.9500E+00
      6.517  0.2901E-02  0.9506E+00
      6.724  0.1175E-03  0.9506E+00
      6.931  0.8208E-12  0.9506E+00
      7.138  0.1642E-02  0.9510E+00
      7.345  0.1903E-01  0.9549E+00
      7.552  0.2581E-01  0.9602E+00
      7.759  0.4286E-01  0.9691E+00
      7.966  0.5859E-01  0.9813E+00
      8.173  0.7054E-01  0.9959E+00
      8.380  0.1620E-01  0.9992E+00
      8.587  0.3812E-02  0.1000E+01
      8.794  0.2929E-06  0.1000E+01
      9.001  0.0000E+00  0.1000E+01
      9.208  0.0000E+00  0.1000E+01
      9.415  0.0000E+00  0.1000E+01
      9.622  0.0000E+00  0.1000E+01
      9.829  0.0000E+00  0.1000E+01
     10.036  0.0000E+00  0.1000E+01
     10.244  0.0000E+00  0.1000E+01
     10.451  0.0000E+00  0.1000E+01
     10.658  0.0000E+00  0.1000E+01
     10.865  0.0000E+00  0.1000E+01
     11.072  0.0000E+00  0.1000E+01
     11.279  0.0000E+00  0.1000E+01
     11.27871908    -50.83440623  301      0.74536824      1.00000000
    -50.834  0.0000E+00  0.0000E+00  0.0000E+00  0.0000E+00  0.0000E+00  0.0000E+00  0.0000E+00  0.0000E+00  0.0000E+00
    -50.627  0.0000E+00  0.0000E+00  0.0000E+00  0.0000E+00  0.0000E+00  0.0000E+00  0.0000E+00  0.0000E+00  0.0000E+00
    -50.420  0.0000E+00  0.0000E+00  0.0000E+00  0.0000E+00  0.0000E+00  0.0000E+00  0.0000E+00  0.0000E+00  0.0000E+00
    -50.213  0.0000E+00  0.0000E+00  0.0000E+00  0.0000E+00  0.0000E+00  0.0000E+00  0.0000E+00  0.0000E+00  0.0000E+00
    -50.006  0.0000E+00  0.0000E+00  0.0000E+00  0.0000E+00  0.0000E+00  0.0000E+00  0.0000E+00  0.0000E+00  0.0000E+00
    -49.799  0.0000E+00  0.0000E+00  0.0000E+00  0.0000E+00  0.0000E+00  0.0000E+00  0.0000E+00  0.0000E+00  0.0000E+00
    -49.592  0.0000E+00  0.0000E+00  0.0000E+00  0.0000E+00  0.0000E+00  0.0000E+00  0.0000E+00  0.0000E+00  0.0000E+00
    -49.385  0.0000E+00  0.0000E+00  0.0000E+00  0.0000E+00  0.0000E+00  0.0000E+00  0.0000E+00  0.0000E+00  0.0000E+00
    -49.178  0.0000E+00  0.0000E+00  0.0000E+00  0.0000E+00  0.0000E+00  0.0000E+00  0.0000E+00  0.0000E+00  0.0000E+00
    -48.971  0.0000E+00  0.0000E+00  0.0000E+00  0.0000E+00  0.0000E+00  0.0000E+00  0.0000E+00  0.0000E+00  0.0000E+00
    -48.764  0.0000E+00  0.0000E+00  0.0000E+00  0.0000E+00  0.0000E+00  0.0000E+00  0.0000E+00  0.0000E+00  0.0000E+00
    -48.557  0.0000E+00  0.0000E+00  0.0000E+00  0.0000E+00  0.0000E+00  0.0000E+00  0.0000E+00  0.0000E+00  0.0000E+00
    -48.350  0.0000E+00  0.0000E+00  0.0000E+00  0.0000E+00  0.0000E+00  0.0000E+00  0.0000E+00  0.0000E+00  0.0000E+00
    -48.143  0.1947E-12  0.1207E-13  0.1138E-13  0.5494E-13  0.0000E+00  0.0000E+00  0.0000E+00  0.0000E+00  0.0000E+00
    -47.936  0.2638E-08  0.1925E-09  0.1837E-09  0.6239E-09  0.0000E+00  0.0000E+00  0.0000E+00  0.0000E+00  0.0000E+00
    -47.729  0.5323E-08  0.5956E-09  0.6524E-09  0.2379E-09  0.0000E+00  0.0000E+00  0.0000E+00  0.0000E+00  0.0000E+00
    -47.522  0.7340E-09  0.1615E-09  0.3423E-10  0.2802E-10  0.0000E+00  0.0000E+00  0.0000E+00  0.0000E+00  0.0000E+00
    -47.315  0.0000E+00  0.0000E+00  0.0000E+00  0.0000E+00  0.0000E+00  0.0000E+00  0.0000E+00  0.0000E+00  0.0000E+00
    -47.108  0.0000E+00  0.0000E+00  0.0000E+00  0.0000E+00  0.0000E+00  0.0000E+00  0.0000E+00  0.0000E+00  0.0000E+00
    -46.901  0.0000E+00  0.0000E+00  0.0000E+00  0.0000E+00  0.0000E+00  0.0000E+00  0.0000E+00  0.0000E+00  0.0000E+00
    -46.694  0.0000E+00  0.0000E+00  0.0000E+00  0.0000E+00  0.0000E+00  0.0000E+00  0.0000E+00  0.0000E+00  0.0000E+00
    -46.486  0.0000E+00  0.0000E+00  0.0000E+00  0.0000E+00  0.0000E+00  0.0000E+00  0.0000E+00  0.0000E+00  0.0000E+00
    -46.279  0.0000E+00  0.0000E+00  0.0000E+00  0.0000E+00  0.0000E+00  0.0000E+00  0.0000E+00  0.0000E+00  0.0000E+00
    -46.072  0.0000E+00  0.0000E+00  0.0000E+00  0.0000E+00  0.0000E+00  0.0000E+00  0.0000E+00  0.0000E+00  0.0000E+00
    -45.865  0.0000E+00  0.0000E+00  0.0000E+00  0.0000E+00  0.0000E+00  0.0000E+00  0.0000E+00  0.0000E+00  0.0000E+00
    -45.658  0.0000E+00  0.0000E+00  0.0000E+00  0.0000E+00  0.0000E+00  0.0000E+00  0.0000E+00  0.0000E+00  0.0000E+00
    -45.451  0.0000E+00  0.0000E+00  0.0000E+00  0.0000E+00  0.0000E+00  0.0000E+00  0.0000E+00  0.0000E+00  0.0000E+00
    -45.244  0.0000E+00  0.0000E+00  0.0000E+00  0.0000E+00  0.0000E+00  0.0000E+00  0.0000E+00  0.0000E+00  0.0000E+00
    -45.037  0.0000E+00  0.0000E+00  0.0000E+00  0.0000E+00  0.0000E+00  0.0000E+00  0.0000E+00  0.0000E+00  0.0000E+00
    -44.830  0.0000E+00  0.0000E+00  0.0000E+00  0.0000E+00  0.0000E+00  0.0000E+00  0.0000E+00  0.0000E+00  0.0000E+00
    -44.623  0.0000E+00  0.0000E+00  0.0000E+00  0.0000E+00  0.0000E+00  0.0000E+00  0.0000E+00  0.0000E+00  0.0000E+00
    -44.416  0.0000E+00  0.0000E+00  0.0000E+00  0.0000E+00  0.0000E+00  0.0000E+00  0.0000E+00  0.0000E+00  0.0000E+00
    -44.209  0.0000E+00  0.0000E+00  0.0000E+00  0.0000E+00  0.0000E+00  0.0000E+00  0.0000E+00  0.0000E+00  0.0000E+00
    -44.002  0.0000E+00  0.0000E+00  0.0000E+00  0.0000E+00  0.0000E+00  0.0000E+00  0.0000E+00  0.0000E+00  0.0000E+00
    -43.795  0.4709E-22  0.2363E-21  0.8299E-21  0.3788E-21  0.0000E+00  0.0000E+00  0.0000E+00  0.0000E+00  0.0000E+00
    -43.588  0.1023E-10  0.5127E-10  0.1802E-09  0.8226E-10  0.0000E+00  0.0000E+00  0.0000E+00  0.0000E+00  0.0000E+00
    -43.381  0.9303E-10  0.4663E-09  0.1640E-08  0.7483E-09  0.0000E+00  0.0000E+00  0.0000E+00  0.0000E+00  0.0000E+00
    -43.174  0.2530E-15  0.1267E-14  0.4460E-14  0.2035E-14  0.0000E+00  0.0000E+00  0.0000E+00  0.0000E+00  0.0000E+00
    -42.967  0.1201E-09  0.4074E-18  0.8848E-16  0.4452E-18  0.0000E+00  0.0000E+00  0.0000E+00  0.0000E+00  0.0000E+00
    -42.760  0.1979E+01  0.6835E-08  0.1459E-05  0.7476E-08  0.0000E+00  0.0000E+00  0.0000E+00  0.0000E+00  0.0000E+00
    -42.553  0.7578E+01  0.3014E-07  0.5590E-05  0.3434E-07  0.0000E+00  0.0000E+00  0.0000E+00  0.0000E+00  0.0000E+00
    -42.346  0.3944E-05  0.9843E-08  0.9218E-08  0.6263E-08  0.0000E+00  0.0000E+00  0.0000E+00  0.0000E+00  0.0000E+00
    -42.139  0.3488E-07  0.1893E-08  0.4642E-09  0.4094E-09  0.0000E+00  0.0000E+00  0.0000E+00  0.0000E+00  0.0000E+00
    -41.932  0.2890E-13  0.1829E-14  0.4475E-15  0.3741E-15  0.0000E+00  0.0000E+00  0.0000E+00  0.0000E+00  0.0000E+00
    -41.724  0.0000E+00  0.0000E+00  0.0000E+00  0.0000E+00  0.0000E+00  0.0000E+00  0.0000E+00  0.0000E+00  0.0000E+00
    -41.517  0.0000E+00  0.0000E+00  0.0000E+00  0.0000E+00  0.0000E+00  0.0000E+00  0.0000E+00  0.0000E+00  0.0000E+00
    -41.310  0.0000E+00  0.0000E+00  0.0000E+00  0.0000E+00  0.0000E+00  0.0000E+00  0.0000E+00  0.0000E+00  0.0000E+00
    -41.103  0.0000E+00  0.0000E+00  0.0000E+00  0.0000E+00  0.0000E+00  0.0000E+00  0.0000E+00  0.0000E+00  0.0000E+00
    -40.896  0.0000E+00  0.0000E+00  0.0000E+00  0.0000E+00  0.0000E+00  0.0000E+00  0.0000E+00  0.0000E+00  0.0000E+00
    -40.689  0.0000E+00  0.0000E+00  0.0000E+00  0.0000E+00  0.0000E+00  0.0000E+00  0.0000E+00  0.0000E+00  0.0000E+00
    -40.482  0.0000E+00  0.0000E+00  0.0000E+00  0.0000E+00  0.0000E+00  0.0000E+00  0.0000E+00  0.0000E+00  0.0000E+00
    -40.275  0.0000E+00  0.0000E+00  0.0000E+00  0.0000E+00  0.0000E+00  0.0000E+00  0.0000E+00  0.0000E+00  0.0000E+00
    -40.068  0.0000E+00  0.0000E+00  0.0000E+00  0.0000E+00  0.0000E+00  0.0000E+00  0.0000E+00  0.0000E+00  0.0000E+00
    -39.861  0.0000E+00  0.0000E+00  0.0000E+00  0.0000E+00  0.0000E+00  0.0000E+00  0.0000E+00  0.0000E+00  0.0000E+00
    -39.654  0.0000E+00  0.0000E+00  0.0000E+00  0.0000E+00  0.0000E+00  0.0000E+00  0.0000E+00  0.0000E+00  0.0000E+00
    -39.447  0.0000E+00  0.0000E+00  0.0000E+00  0.0000E+00  0.0000E+00  0.0000E+00  0.0000E+00  0.0000E+00  0.0000E+00
    -39.240  0.0000E+00  0.0000E+00  0.0000E+00  0.0000E+00  0.0000E+00  0.0000E+00  0.0000E+00  0.0000E+00  0.0000E+00
    -39.033  0.0000E+00  0.0000E+00  0.0000E+00  0.0000E+00  0.0000E+00  0.0000E+00  0.0000E+00  0.0000E+00  0.0000E+00
    -38.826  0.0000E+00  0.0000E+00  0.0000E+00  0.0000E+00  0.0000E+00  0.0000E+00  0.0000E+00  0.0000E+00  0.0000E+00
    -38.619  0.0000E+00  0.0000E+00  0.0000E+00  0.0000E+00  0.0000E+00  0.0000E+00  0.0000E+00  0.0000E+00  0.0000E+00
    -38.412  0.0000E+00  0.0000E+00  0.0000E+00  0.0000E+00  0.0000E+00  0.0000E+00  0.0000E+00  0.0000E+00  0.0000E+00
    -38.205  0.0000E+00  0.0000E+00  0.0000E+00  0.0000E+00  0.0000E+00  0.0000E+00  0.0000E+00  0.0000E+00  0.0000E+00
    -37.998  0.0000E+00  0.0000E+00  0.0000E+00  0.0000E+00  0.0000E+00  0.0000E+00  0.0000E+00  0.0000E+00  0.0000E+00
    -37.791  0.0000E+00  0.0000E+00  0.0000E+00  0.0000E+00  0.0000E+00  0.0000E+00  0.0000E+00  0.0000E+00  0.0000E+00
    -37.584  0.0000E+00  0.0000E+00  0.0000E+00  0.0000E+00  0.0000E+00  0.0000E+00  0.0000E+00  0.0000E+00  0.0000E+00
    -37.377  0.0000E+00  0.0000E+00  0.0000E+00  0.0000E+00  0.0000E+00  0.0000E+00  0.0000E+00  0.0000E+00  0.0000E+00
    -37.170  0.0000E+00  0.0000E+00  0.0000E+00  0.0000E+00  0.0000E+00  0.0000E+00  0.0000E+00  0.0000E+00  0.0000E+00
    -36.962  0.0000E+00  0.0000E+00  0.0000E+00  0.0000E+00  0.0000E+00  0.0000E+00  0.0000E+00  0.0000E+00  0.0000E+00
    -36.755  0.0000E+00  0.0000E+00  0.0000E+00  0.0000E+00  0.0000E+00  0.0000E+00  0.0000E+00  0.0000E+00  0.0000E+00
    -36.548  0.0000E+00  0.0000E+00  0.0000E+00  0.0000E+00  0.0000E+00  0.0000E+00  0.0000E+00  0.0000E+00  0.0000E+00
    -36.341  0.0000E+00  0.0000E+00  0.0000E+00  0.0000E+00  0.0000E+00  0.0000E+00  0.0000E+00  0.0000E+00  0.0000E+00
    -36.134  0.0000E+00  0.0000E+00  0.0000E+00  0.0000E+00  0.0000E+00  0.0000E+00  0.0000E+00  0.0000E+00  0.0000E+00
    -35.927  0.0000E+00  0.0000E+00  0.0000E+00  0.0000E+00  0.0000E+00  0.0000E+00  0.0000E+00  0.0000E+00  0.0000E+00
    -35.720  0.0000E+00  0.0000E+00  0.0000E+00  0.0000E+00  0.0000E+00  0.0000E+00  0.0000E+00  0.0000E+00  0.0000E+00
    -35.513  0.0000E+00  0.0000E+00  0.0000E+00  0.0000E+00  0.0000E+00  0.0000E+00  0.0000E+00  0.0000E+00  0.0000E+00
    -35.306  0.0000E+00  0.0000E+00  0.0000E+00  0.0000E+00  0.0000E+00  0.0000E+00  0.0000E+00  0.0000E+00  0.0000E+00
    -35.099  0.0000E+00  0.0000E+00  0.0000E+00  0.0000E+00  0.0000E+00  0.0000E+00  0.0000E+00  0.0000E+00  0.0000E+00
    -34.892  0.0000E+00  0.0000E+00  0.0000E+00  0.0000E+00  0.0000E+00  0.0000E+00  0.0000E+00  0.0000E+00  0.0000E+00
    -34.685  0.0000E+00  0.0000E+00  0.0000E+00  0.0000E+00  0.0000E+00  0.0000E+00  0.0000E+00  0.0000E+00  0.0000E+00
    -34.478  0.0000E+00  0.0000E+00  0.0000E+00  0.0000E+00  0.0000E+00  0.0000E+00  0.0000E+00  0.0000E+00  0.0000E+00
    -34.271  0.0000E+00  0.0000E+00  0.0000E+00  0.0000E+00  0.0000E+00  0.0000E+00  0.0000E+00  0.0000E+00  0.0000E+00
    -34.064  0.0000E+00  0.0000E+00  0.0000E+00  0.0000E+00  0.0000E+00  0.0000E+00  0.0000E+00  0.0000E+00  0.0000E+00
    -33.857  0.0000E+00  0.0000E+00  0.0000E+00  0.0000E+00  0.0000E+00  0.0000E+00  0.0000E+00  0.0000E+00  0.0000E+00
    -33.650  0.0000E+00  0.0000E+00  0.0000E+00  0.0000E+00  0.0000E+00  0.0000E+00  0.0000E+00  0.0000E+00  0.0000E+00
    -33.443  0.0000E+00  0.0000E+00  0.0000E+00  0.0000E+00  0.0000E+00  0.0000E+00  0.0000E+00  0.0000E+00  0.0000E+00
    -33.236  0.0000E+00  0.0000E+00  0.0000E+00  0.0000E+00  0.0000E+00  0.0000E+00  0.0000E+00  0.0000E+00  0.0000E+00
    -33.029  0.0000E+00  0.0000E+00  0.0000E+00  0.0000E+00  0.0000E+00  0.0000E+00  0.0000E+00  0.0000E+00  0.0000E+00
    -32.822  0.0000E+00  0.0000E+00  0.0000E+00  0.0000E+00  0.0000E+00  0.0000E+00  0.0000E+00  0.0000E+00  0.0000E+00
    -32.615  0.0000E+00  0.0000E+00  0.0000E+00  0.0000E+00  0.0000E+00  0.0000E+00  0.0000E+00  0.0000E+00  0.0000E+00
    -32.408  0.0000E+00  0.0000E+00  0.0000E+00  0.0000E+00  0.0000E+00  0.0000E+00  0.0000E+00  0.0000E+00  0.0000E+00
    -32.200  0.0000E+00  0.0000E+00  0.0000E+00  0.0000E+00  0.0000E+00  0.0000E+00  0.0000E+00  0.0000E+00  0.0000E+00
    -31.993  0.0000E+00  0.0000E+00  0.0000E+00  0.0000E+00  0.0000E+00  0.0000E+00  0.0000E+00  0.0000E+00  0.0000E+00
    -31.786  0.0000E+00  0.0000E+00  0.0000E+00  0.0000E+00  0.0000E+00  0.0000E+00  0.0000E+00  0.0000E+00  0.0000E+00
    -31.579  0.0000E+00  0.0000E+00  0.0000E+00  0.0000E+00  0.0000E+00  0.0000E+00  0.0000E+00  0.0000E+00  0.0000E+00
    -31.372  0.0000E+00  0.0000E+00  0.0000E+00  0.0000E+00  0.0000E+00  0.0000E+00  0.0000E+00  0.0000E+00  0.0000E+00
    -31.165  0.0000E+00  0.0000E+00  0.0000E+00  0.0000E+00  0.0000E+00  0.0000E+00  0.0000E+00  0.0000E+00  0.0000E+00
    -30.958  0.0000E+00  0.0000E+00  0.0000E+00  0.0000E+00  0.0000E+00  0.0000E+00  0.0000E+00  0.0000E+00  0.0000E+00
    -30.751  0.0000E+00  0.0000E+00  0.0000E+00  0.0000E+00  0.0000E+00  0.0000E+00  0.0000E+00  0.0000E+00  0.0000E+00
    -30.544  0.0000E+00  0.0000E+00  0.0000E+00  0.0000E+00  0.0000E+00  0.0000E+00  0.0000E+00  0.0000E+00  0.0000E+00
    -30.337  0.0000E+00  0.0000E+00  0.0000E+00  0.0000E+00  0.0000E+00  0.0000E+00  0.0000E+00  0.0000E+00  0.0000E+00
    -30.130  0.0000E+00  0.0000E+00  0.0000E+00  0.0000E+00  0.0000E+00  0.0000E+00  0.0000E+00  0.0000E+00  0.0000E+00
    -29.923  0.0000E+00  0.0000E+00  0.0000E+00  0.0000E+00  0.0000E+00  0.0000E+00  0.0000E+00  0.0000E+00  0.0000E+00
    -29.716  0.0000E+00  0.0000E+00  0.0000E+00  0.0000E+00  0.0000E+00  0.0000E+00  0.0000E+00  0.0000E+00  0.0000E+00
    -29.509  0.0000E+00  0.0000E+00  0.0000E+00  0.0000E+00  0.0000E+00  0.0000E+00  0.0000E+00  0.0000E+00  0.0000E+00
    -29.302  0.0000E+00  0.0000E+00  0.0000E+00  0.0000E+00  0.0000E+00  0.0000E+00  0.0000E+00  0.0000E+00  0.0000E+00
    -29.095  0.0000E+00  0.0000E+00  0.0000E+00  0.0000E+00  0.0000E+00  0.0000E+00  0.0000E+00  0.0000E+00  0.0000E+00
    -28.888  0.0000E+00  0.0000E+00  0.0000E+00  0.0000E+00  0.0000E+00  0.0000E+00  0.0000E+00  0.0000E+00  0.0000E+00
    -28.681  0.0000E+00  0.0000E+00  0.0000E+00  0.0000E+00  0.0000E+00  0.0000E+00  0.0000E+00  0.0000E+00  0.0000E+00
    -28.474  0.0000E+00  0.0000E+00  0.0000E+00  0.0000E+00  0.0000E+00  0.0000E+00  0.0000E+00  0.0000E+00  0.0000E+00
    -28.267  0.0000E+00  0.0000E+00  0.0000E+00  0.0000E+00  0.0000E+00  0.0000E+00  0.0000E+00  0.0000E+00  0.0000E+00
    -28.060  0.0000E+00  0.0000E+00  0.0000E+00  0.0000E+00  0.0000E+00  0.0000E+00  0.0000E+00  0.0000E+00  0.0000E+00
    -27.853  0.0000E+00  0.0000E+00  0.0000E+00  0.0000E+00  0.0000E+00  0.0000E+00  0.0000E+00  0.0000E+00  0.0000E+00
    -27.646  0.0000E+00  0.0000E+00  0.0000E+00  0.0000E+00  0.0000E+00  0.0000E+00  0.0000E+00  0.0000E+00  0.0000E+00
    -27.438  0.0000E+00  0.0000E+00  0.0000E+00  0.0000E+00  0.0000E+00  0.0000E+00  0.0000E+00  0.0000E+00  0.0000E+00
    -27.231  0.0000E+00  0.0000E+00  0.0000E+00  0.0000E+00  0.0000E+00  0.0000E+00  0.0000E+00  0.0000E+00  0.0000E+00
    -27.024  0.3242E-20  0.1250E-21  0.1322E-21  0.2196E-21  0.0000E+00  0.0000E+00  0.0000E+00  0.0000E+00  0.0000E+00
    -26.817  0.1106E-07  0.4189E-09  0.4452E-09  0.7530E-09  0.0000E+00  0.0000E+00  0.0000E+00  0.0000E+00  0.0000E+00
    -26.610  0.7170E-06  0.2577E-07  0.3139E-07  0.5034E-07  0.0000E+00  0.0000E+00  0.0000E+00  0.0000E+00  0.0000E+00
    -26.403  0.6621E-06  0.4077E-07  0.2983E-07  0.2314E-07  0.0000E+00  0.0000E+00  0.0000E+00  0.0000E+00  0.0000E+00
    -26.196  0.2409E-07  0.1914E-08  0.7080E-09  0.7491E-09  0.0000E+00  0.0000E+00  0.0000E+00  0.0000E+00  0.0000E+00
    -25.989  0.0000E+00  0.0000E+00  0.0000E+00  0.0000E+00  0.0000E+00  0.0000E+00  0.0000E+00  0.0000E+00  0.0000E+00
    -25.782  0.0000E+00  0.0000E+00  0.0000E+00  0.0000E+00  0.0000E+00  0.0000E+00  0.0000E+00  0.0000E+00  0.0000E+00
    -25.575  0.0000E+00  0.0000E+00  0.0000E+00  0.0000E+00  0.0000E+00  0.0000E+00  0.0000E+00  0.0000E+00  0.0000E+00
    -25.368  0.0000E+00  0.0000E+00  0.0000E+00  0.0000E+00  0.0000E+00  0.0000E+00  0.0000E+00  0.0000E+00  0.0000E+00
    -25.161  0.0000E+00  0.0000E+00  0.0000E+00  0.0000E+00  0.0000E+00  0.0000E+00  0.0000E+00  0.0000E+00  0.0000E+00
    -24.954  0.0000E+00  0.0000E+00  0.0000E+00  0.0000E+00  0.0000E+00  0.0000E+00  0.0000E+00  0.0000E+00  0.0000E+00
    -24.747  0.0000E+00  0.0000E+00  0.0000E+00  0.0000E+00  0.0000E+00  0.0000E+00  0.0000E+00  0.0000E+00  0.0000E+00
    -24.540  0.0000E+00  0.0000E+00  0.0000E+00  0.0000E+00  0.0000E+00  0.0000E+00  0.0000E+00  0.0000E+00  0.0000E+00
    -24.333  0.0000E+00  0.0000E+00  0.0000E+00  0.0000E+00  0.0000E+00  0.0000E+00  0.0000E+00  0.0000E+00  0.0000E+00
    -24.126  0.0000E+00  0.0000E+00  0.0000E+00  0.0000E+00  0.0000E+00  0.0000E+00  0.0000E+00  0.0000E+00  0.0000E+00
    -23.919  0.0000E+00  0.0000E+00  0.0000E+00  0.0000E+00  0.0000E+00  0.0000E+00  0.0000E+00  0.0000E+00  0.0000E+00
    -23.712  0.0000E+00  0.0000E+00  0.0000E+00  0.0000E+00  0.0000E+00  0.0000E+00  0.0000E+00  0.0000E+00  0.0000E+00
    -23.505  0.0000E+00  0.0000E+00  0.0000E+00  0.0000E+00  0.0000E+00  0.0000E+00  0.0000E+00  0.0000E+00  0.0000E+00
    -23.298  0.0000E+00  0.0000E+00  0.0000E+00  0.0000E+00  0.0000E+00  0.0000E+00  0.0000E+00  0.0000E+00  0.0000E+00
    -23.091  0.0000E+00  0.0000E+00  0.0000E+00  0.0000E+00  0.0000E+00  0.0000E+00  0.0000E+00  0.0000E+00  0.0000E+00
    -22.883  0.0000E+00  0.0000E+00  0.0000E+00  0.0000E+00  0.0000E+00  0.0000E+00  0.0000E+00  0.0000E+00  0.0000E+00
    -22.676  0.0000E+00  0.0000E+00  0.0000E+00  0.0000E+00  0.0000E+00  0.0000E+00  0.0000E+00  0.0000E+00  0.0000E+00
    -22.469  0.0000E+00  0.0000E+00  0.0000E+00  0.0000E+00  0.0000E+00  0.0000E+00  0.0000E+00  0.0000E+00  0.0000E+00
    -22.262  0.0000E+00  0.0000E+00  0.0000E+00  0.0000E+00  0.0000E+00  0.0000E+00  0.0000E+00  0.0000E+00  0.0000E+00
    -22.055  0.0000E+00  0.0000E+00  0.0000E+00  0.0000E+00  0.0000E+00  0.0000E+00  0.0000E+00  0.0000E+00  0.0000E+00
    -21.848  0.0000E+00  0.0000E+00  0.0000E+00  0.0000E+00  0.0000E+00  0.0000E+00  0.0000E+00  0.0000E+00  0.0000E+00
    -21.641  0.0000E+00  0.0000E+00  0.0000E+00  0.0000E+00  0.0000E+00  0.0000E+00  0.0000E+00  0.0000E+00  0.0000E+00
    -21.434  0.0000E+00  0.0000E+00  0.0000E+00  0.0000E+00  0.0000E+00  0.0000E+00  0.0000E+00  0.0000E+00  0.0000E+00
    -21.227  0.0000E+00  0.0000E+00  0.0000E+00  0.0000E+00  0.0000E+00  0.0000E+00  0.0000E+00  0.0000E+00  0.0000E+00
    -21.020  0.0000E+00  0.0000E+00  0.0000E+00  0.0000E+00  0.0000E+00  0.0000E+00  0.0000E+00  0.0000E+00  0.0000E+00
    -20.813  0.0000E+00  0.0000E+00  0.0000E+00  0.0000E+00  0.0000E+00  0.0000E+00  0.0000E+00  0.0000E+00  0.0000E+00
    -20.606  0.0000E+00  0.0000E+00  0.0000E+00  0.0000E+00  0.0000E+00  0.0000E+00  0.0000E+00  0.0000E+00  0.0000E+00
    -20.399  0.0000E+00  0.0000E+00  0.0000E+00  0.0000E+00  0.0000E+00  0.0000E+00  0.0000E+00  0.0000E+00  0.0000E+00
    -20.192  0.0000E+00  0.0000E+00  0.0000E+00  0.0000E+00  0.0000E+00  0.0000E+00  0.0000E+00  0.0000E+00  0.0000E+00
    -19.985  0.0000E+00  0.0000E+00  0.0000E+00  0.0000E+00  0.0000E+00  0.0000E+00  0.0000E+00  0.0000E+00  0.0000E+00
    -19.778  0.0000E+00  0.0000E+00  0.0000E+00  0.0000E+00  0.0000E+00  0.0000E+00  0.0000E+00  0.0000E+00  0.0000E+00
    -19.571  0.0000E+00  0.0000E+00  0.0000E+00  0.0000E+00  0.0000E+00  0.0000E+00  0.0000E+00  0.0000E+00  0.0000E+00
    -19.364  0.0000E+00  0.0000E+00  0.0000E+00  0.0000E+00  0.0000E+00  0.0000E+00  0.0000E+00  0.0000E+00  0.0000E+00
    -19.157  0.0000E+00  0.0000E+00  0.0000E+00  0.0000E+00  0.0000E+00  0.0000E+00  0.0000E+00  0.0000E+00  0.0000E+00
    -18.950  0.0000E+00  0.0000E+00  0.0000E+00  0.0000E+00  0.0000E+00  0.0000E+00  0.0000E+00  0.0000E+00  0.0000E+00
    -18.743  0.0000E+00  0.0000E+00  0.0000E+00  0.0000E+00  0.0000E+00  0.0000E+00  0.0000E+00  0.0000E+00  0.0000E+00
    -18.536  0.0000E+00  0.0000E+00  0.0000E+00  0.0000E+00  0.0000E+00  0.0000E+00  0.0000E+00  0.0000E+00  0.0000E+00