 running on  256 total cores
 distrk:  each k-point on  128 cores,    2 groups
 distr:  one band on   32 cores,    4 groups
 using from now: INCAR     
 vasp.5.4.4.18Apr17-6-g9f103f2a35 (build May 17 2021 09:35:58) complex           
 POSCAR found type information on POSCAR  Li Sc Cl
 POSCAR found :  3 types and      54 ions
 scaLAPACK will be used

 ----------------------------------------------------------------------------- 
|                                                                             |
|           W    W    AA    RRRRR   N    N  II  N    N   GGGG   !!!           |
|           W    W   A  A   R    R  NN   N  II  NN   N  G    G  !!!           |
|           W    W  A    A  R    R  N N  N  II  N N  N  G       !!!           |
|           W WW W  AAAAAA  RRRRR   N  N N  II  N  N N  G  GGG   !            |
|           WW  WW  A    A  R   R   N   NN  II  N   NN  G    G                |
|           W    W  A    A  R    R  N    N  II  N    N   GGGG   !!!           |
|                                                                             |
|      You have enabled k-point parallelism (KPAR>1).                         |
|      This developmental code was originally  written by Paul Kent at ORNL,  |
|      and carefully double checked in Vienna.                                |
|      GW as well as linear response parallelism added by Martijn Marsman     |
|      and Georg Kresse.                                                      |
|      Carefully verify results versus KPAR=1.                                |
|      Report problems to Paul Kent and Vienna.                               |
|                                                                             |
 ----------------------------------------------------------------------------- 


 ----------------------------------------------------------------------------- 
|                                                                             |
|           W    W    AA    RRRRR   N    N  II  N    N   GGGG   !!!           |
|           W    W   A  A   R    R  NN   N  II  NN   N  G    G  !!!           |
|           W    W  A    A  R    R  N N  N  II  N N  N  G       !!!           |
|           W WW W  AAAAAA  RRRRR   N  N N  II  N  N N  G  GGG   !            |
|           WW  WW  A    A  R   R   N   NN  II  N   NN  G    G                |
|           W    W  A    A  R    R  N    N  II  N    N   GGGG   !!!           |
|                                                                             |
|     The real-space-projection scheme for the treatment of the nonlocal      |
|     pseudopotentials has been switched on -- but on file POTCAR I have      |
|     not found any entries signalling me that you have ever performed a      |
|     real-space optimization of all nonlocal projectors! BE WARNED that      |
|     a calculation using the real-space-projection scheme together with      |
|     nonlocal projectors which were not real-space-optimized (according      |
|     to the plane-wave-cutoff used in this calculation) might give more      |
|     or less inaccurate results                                              |
|     I hope you know what you are doing                                      |
|                                                                             |
 ----------------------------------------------------------------------------- 


 ----------------------------------------------------------------------------- 
|                                                                             |
|  ADVICE TO THIS USER RUNNING 'VASP/VAMP'   (HEAR YOUR MASTER'S VOICE ...):  |
|                                                                             |
|      You enforced a specific xc-type in the INCAR file,                     |
|      a different type was found on the POTCAR file                          |
|          I HOPE YOU KNOW, WHAT YOU ARE  DOING                               |
|                                                                             |
 ----------------------------------------------------------------------------- 

 LDA part: xc-table for Pade appr. of Perdew
 POSCAR found type information on POSCAR  Li Sc Cl
 POSCAR found :  3 types and      54 ions
 POSCAR, INCAR and KPOINTS ok, starting setup
 FFT: planning ...
 WAVECAR not read
 entering main loop
       N       E                     dE             d eps       ncg     rms          rms(c)
DAV:   1     0.482814254606E+04    0.48281E+04   -0.15032E+05  3200   0.188E+03
DAV:   2     0.606753515030E+03   -0.42214E+04   -0.41040E+04  3512   0.513E+02
DAV:   3    -0.132071911780E+03   -0.73883E+03   -0.69488E+03  4376   0.206E+02
DAV:   4    -0.232914912047E+03   -0.10084E+03   -0.10045E+03  5336   0.848E+01
DAV:   5    -0.245370642826E+03   -0.12456E+02   -0.12425E+02  6304   0.321E+01    0.262E+01
DAV:   6    -0.233846370802E+03    0.11524E+02   -0.55613E+01  5632   0.271E+01    0.131E+01
DAV:   7    -0.233594675599E+03    0.25170E+00   -0.11071E+01  5896   0.101E+01    0.651E+00
DAV:   8    -0.233652286118E+03   -0.57611E-01   -0.23363E+00  5472   0.543E+00    0.260E+00
DAV:   9    -0.233637634089E+03    0.14652E-01   -0.45082E-01  5320   0.312E+00    0.153E+00
DAV:  10    -0.233624882991E+03    0.12751E-01   -0.11049E-01  5448   0.175E+00    0.724E-01
DAV:  11    -0.233623334279E+03    0.15487E-02   -0.25416E-02  5248   0.647E-01    0.242E-01
DAV:  12    -0.233624028934E+03   -0.69466E-03   -0.73007E-03  6192   0.290E-01    0.162E-01
DAV:  13    -0.233624102972E+03   -0.74037E-04   -0.19768E-03  4872   0.216E-01    0.720E-02
DAV:  14    -0.233624173229E+03   -0.70257E-04   -0.72288E-04  5864   0.794E-02    0.362E-02
DAV:  15    -0.233624189805E+03   -0.16577E-04   -0.12365E-04  5704   0.329E-02    0.152E-02
DAV:  16    -0.233624194791E+03   -0.49863E-05   -0.36269E-05  4040   0.192E-02    0.912E-03
DAV:  17    -0.233624195829E+03   -0.10372E-05   -0.24286E-05  5184   0.111E-02    0.770E-03
DAV:  18    -0.233624196097E+03   -0.26812E-06   -0.26996E-06  2560   0.521E-03
   1 F= -.23362420E+03 E0= -.23362420E+03  d E =-.233624E+03
 curvature:   0.00 expect dE= 0.000E+00 dE for cont linesearch  0.000E+00
 trial: gam= 0.00000 g(F)=  0.112E+00 g(S)=  0.548E-02 ort = 0.000E+00 (trialstep = 0.100E+01)
 search vector abs. value=  0.117E+00
 bond charge predicted
       N       E                     dE             d eps       ncg     rms          rms(c)
DAV:   1    -0.233513378240E+03    0.11082E+00   -0.12671E+01  3584   0.168E+01    0.151E+00
DAV:   2    -0.233707134716E+03   -0.19376E+00   -0.23423E+00  4288   0.393E+00    0.788E-01
DAV:   3    -0.233704252546E+03    0.28822E-02   -0.81541E-02  5256   0.868E-01    0.566E-01
DAV:   4    -0.233701179179E+03    0.30734E-02   -0.92695E-03  5112   0.266E-01    0.272E-01
DAV:   5    -0.233700214757E+03    0.96442E-03   -0.32679E-03  4664   0.161E-01    0.109E-01
DAV:   6    -0.233700184142E+03    0.30616E-04   -0.99584E-04  5616   0.808E-02    0.108E-01
DAV:   7    -0.233700162305E+03    0.21836E-04   -0.23066E-04  5280   0.383E-02    0.544E-02
DAV:   8    -0.233700141285E+03    0.21021E-04   -0.34032E-05  5512   0.180E-02    0.318E-02
DAV:   9    -0.233700133774E+03    0.75110E-05   -0.21957E-05  5000   0.139E-02    0.129E-02
DAV:  10    -0.233700135004E+03   -0.12301E-05   -0.62955E-06  3896   0.702E-03    0.721E-03
DAV:  11    -0.233700135072E+03   -0.67845E-07   -0.77996E-07  1984   0.379E-03
   2 F= -.23370014E+03 E0= -.23370014E+03  d E =-.759390E-01
 trial-energy change:   -0.075939  1 .order   -0.075571   -0.117301   -0.033841
 step:   1.3911(harm=  1.4055)  dis= 0.02352  next Energy=  -233.706774 (dE=-0.826E-01)
 bond charge predicted
       N       E                     dE             d eps       ncg     rms          rms(c)
DAV:   1    -0.233679282545E+03    0.20852E-01   -0.19468E+00  3712   0.667E+00    0.608E-01
DAV:   2    -0.233708370172E+03   -0.29088E-01   -0.35159E-01  4112   0.148E+00    0.285E-01
DAV:   3    -0.233708244297E+03    0.12588E-03   -0.14535E-02  5368   0.360E-01    0.207E-01
DAV:   4    -0.233707753222E+03    0.49107E-03   -0.16121E-03  5200   0.109E-01    0.931E-02
DAV:   5    -0.233707647301E+03    0.10592E-03   -0.46027E-04  4768   0.576E-02    0.435E-02
DAV:   6    -0.233707636704E+03    0.10597E-04   -0.12459E-04  5832   0.295E-02    0.396E-02
DAV:   7    -0.233707632012E+03    0.46922E-05   -0.24495E-05  4768   0.124E-02    0.203E-02
DAV:   8    -0.233707624490E+03    0.75219E-05   -0.54101E-06  3640   0.891E-03    0.765E-03
DAV:   9    -0.233707623535E+03    0.95562E-06   -0.61518E-06  3416   0.602E-03
   3 F= -.23370762E+03 E0= -.23370762E+03  d E =-.834274E-01
 curvature:  -0.70 expect dE=-0.336E-01 dE for cont linesearch -0.197E-03
 trial: gam= 0.35881 g(F)=  0.450E-01 g(S)=  0.281E-02 ort = 0.574E-02 (trialstep = 0.108E+01)
 search vector abs. value=  0.671E-01
 bond charge predicted
       N       E                     dE             d eps       ncg     rms          rms(c)
DAV:   1    -0.233684849608E+03    0.22775E-01   -0.10137E+01  3328   0.105E+01    0.106E+00
DAV:   2    -0.233754650061E+03   -0.69800E-01   -0.81818E-01  4280   0.274E+00    0.536E-01
DAV:   3    -0.233753427492E+03    0.12226E-02   -0.30354E-02  5776   0.533E-01    0.401E-01
DAV:   4    -0.233752487110E+03    0.94038E-03   -0.35191E-03  5488   0.191E-01    0.168E-01
DAV:   5    -0.233752204332E+03    0.28278E-03   -0.12447E-03  4952   0.946E-02    0.556E-02
DAV:   6    -0.233752231654E+03   -0.27322E-04   -0.28592E-04  5216   0.382E-02    0.484E-02
DAV:   7    -0.233752237709E+03   -0.60549E-05   -0.37178E-05  5968   0.155E-02    0.242E-02
DAV:   8    -0.233752239572E+03   -0.18634E-05   -0.35785E-06  3016   0.826E-03    0.134E-02
DAV:   9    -0.233752240387E+03   -0.81531E-06   -0.41004E-06  2952   0.671E-03
   4 F= -.23375224E+03 E0= -.23375224E+03  d E =-.446169E-01
 trial-energy change:   -0.044617  1 .order   -0.044394   -0.053791   -0.034998
 step:   2.7758(harm=  3.0862)  dis= 0.03639  next Energy=  -233.780660 (dE=-0.730E-01)
 bond charge predicted
       N       E                     dE             d eps       ncg     rms          rms(c)
DAV:   1    -0.233615416682E+03    0.13682E+00   -0.25115E+01  3328   0.165E+01    0.169E+00
DAV:   2    -0.233788691523E+03   -0.17327E+00   -0.20324E+00  4272   0.435E+00    0.849E-01
DAV:   3    -0.233786295349E+03    0.23962E-02   -0.81109E-02  5880   0.854E-01    0.634E-01
DAV:   4    -0.233783976159E+03    0.23192E-02   -0.88365E-03  5432   0.306E-01    0.265E-01
DAV:   5    -0.233783258452E+03    0.71771E-03   -0.31028E-03  5040   0.152E-01    0.876E-02
DAV:   6    -0.233783315363E+03   -0.56911E-04   -0.69791E-04  5328   0.592E-02    0.759E-02
DAV:   7    -0.233783324765E+03   -0.94016E-05   -0.90345E-05  5952   0.251E-02    0.379E-02
DAV:   8    -0.233783327096E+03   -0.23307E-05   -0.14000E-05  4736   0.134E-02    0.223E-02
DAV:   9    -0.233783327585E+03   -0.48903E-06   -0.68947E-06  3888   0.825E-03
   5 F= -.23378333E+03 E0= -.23378333E+03  d E =-.757040E-01
 curvature:  -2.02 expect dE=-0.830E-01 dE for cont linesearch -0.714E-03
 trial: gam= 0.72200 g(F)=  0.346E-01 g(S)=  0.640E-02 ort = 0.486E-02 (trialstep = 0.115E+01)
 search vector abs. value=  0.830E-01
 bond charge predicted
       N       E                     dE             d eps       ncg     rms          rms(c)
DAV:   1    -0.233721207904E+03    0.62119E-01   -0.13566E+01  3480   0.137E+01    0.132E+00
DAV:   2    -0.233825104251E+03   -0.10390E+00   -0.13489E+00  4112   0.315E+00    0.589E-01
DAV:   3    -0.233823303555E+03    0.18007E-02   -0.62690E-02  5872   0.726E-01    0.468E-01
DAV:   4    -0.233821310014E+03    0.19935E-02   -0.67633E-03  5040   0.287E-01    0.194E-01
DAV:   5    -0.233820940739E+03    0.36928E-03   -0.16834E-03  5024   0.103E-01    0.882E-02
DAV:   6    -0.233820919085E+03    0.21654E-04   -0.30122E-04  6032   0.526E-02    0.558E-02
DAV:   7    -0.233820907941E+03    0.11144E-04   -0.61020E-05  5768   0.235E-02    0.184E-02
DAV:   8    -0.233820903822E+03    0.41192E-05   -0.12147E-05  5160   0.100E-02    0.112E-02
DAV:   9    -0.233820902896E+03    0.92569E-06   -0.50947E-06  3088   0.620E-03
   6 F= -.23382090E+03 E0= -.23382090E+03  d E =-.375753E-01
 trial-energy change:   -0.037575  1 .order   -0.036914   -0.051002   -0.022827
 step:   1.8979(harm=  2.0734)  dis= 0.03071  next Energy=  -233.828588 (dE=-0.453E-01)
 bond charge predicted
       N       E                     dE             d eps       ncg     rms          rms(c)
DAV:   1    -0.233786984458E+03    0.33919E-01   -0.58735E+00  3480   0.903E+00    0.873E-01
DAV:   2    -0.233831738952E+03   -0.44754E-01   -0.58136E-01  4112   0.207E+00    0.391E-01
DAV:   3    -0.233830762757E+03    0.97620E-03   -0.25741E-02  5816   0.467E-01    0.305E-01
DAV:   4    -0.233829929362E+03    0.83339E-03   -0.29035E-03  4984   0.184E-01    0.127E-01
DAV:   5    -0.233829770773E+03    0.15859E-03   -0.70488E-04  5080   0.678E-02    0.583E-02
DAV:   6    -0.233829754149E+03    0.16624E-04   -0.12298E-04  5944   0.337E-02    0.357E-02
DAV:   7    -0.233829746036E+03    0.81127E-05   -0.26965E-05  5744   0.156E-02    0.122E-02
DAV:   8    -0.233829743551E+03    0.24853E-05   -0.31205E-06  2784   0.649E-03    0.729E-03
DAV:   9    -0.233829742811E+03    0.74003E-06   -0.43672E-06  3048   0.634E-03
   7 F= -.23382974E+03 E0= -.23382974E+03  d E =-.464152E-01
 curvature:  -1.86 expect dE=-0.414E-01 dE for cont linesearch -0.279E-03
 trial: gam= 0.46788 g(F)=  0.219E-01 g(S)=  0.360E-03 ort = 0.352E-02 (trialstep = 0.130E+01)
 search vector abs. value=  0.437E-01
 bond charge predicted
       N       E                     dE             d eps       ncg     rms          rms(c)
DAV:   1    -0.233763919736E+03    0.65824E-01   -0.90756E+00  3336   0.114E+01    0.101E+00
DAV:   2    -0.233848392670E+03   -0.84473E-01   -0.99627E-01  4096   0.276E+00    0.472E-01
DAV:   3    -0.233848390204E+03    0.24654E-05   -0.42209E-02  5736   0.588E-01    0.375E-01
DAV:   4    -0.233847169450E+03    0.12208E-02   -0.40599E-03  5400   0.195E-01    0.173E-01
DAV:   5    -0.233846762610E+03    0.40684E-03   -0.15842E-03  4736   0.106E-01    0.633E-02
DAV:   6    -0.233846768517E+03   -0.59068E-05   -0.39749E-04  5232   0.481E-02    0.620E-02
DAV:   7    -0.233846759402E+03    0.91151E-05   -0.70650E-05  5736   0.209E-02    0.306E-02
DAV:   8    -0.233846750692E+03    0.87099E-05   -0.99231E-06  4528   0.118E-02    0.169E-02
DAV:   9    -0.233846748460E+03    0.22327E-05   -0.59575E-06  3592   0.749E-03    0.740E-03
DAV:  10    -0.233846748617E+03   -0.15737E-06   -0.16411E-06  2112   0.443E-03
   8 F= -.23384675E+03 E0= -.23384675E+03  d E =-.170058E-01
 trial-energy change:   -0.017006  1 .order   -0.016481   -0.030935   -0.002026
 step:   1.3773(harm=  1.3867)  dis= 0.01211  next Energy=  -233.846812 (dE=-0.171E-01)
 bond charge predicted
       N       E                     dE             d eps       ncg     rms          rms(c)
DAV:   1    -0.233846504015E+03    0.24444E-03   -0.35916E-02  3440   0.716E-01    0.651E-02
DAV:   2    -0.233846834832E+03   -0.33082E-03   -0.38827E-03  4288   0.173E-01    0.298E-02
DAV:   3    -0.233846831188E+03    0.36439E-05   -0.13668E-04  5640   0.347E-02    0.224E-02
DAV:   4    -0.233846826625E+03    0.45631E-05   -0.14678E-05  4968   0.115E-02    0.101E-02
DAV:   5    -0.233846824164E+03    0.24606E-05   -0.44732E-06  3160   0.644E-03    0.382E-03
DAV:   6    -0.233846823579E+03    0.58527E-06   -0.13968E-06  1984   0.441E-03
   9 F= -.23384682E+03 E0= -.23384682E+03  d E =-.170808E-01
 curvature:  -1.26 expect dE=-0.163E-01 dE for cont linesearch -0.121E-05
 trial: gam= 0.63653 g(F)=  0.121E-01 g(S)=  0.962E-03 ort = 0.206E-03 (trialstep = 0.131E+01)
 search vector abs. value=  0.310E-01
 bond charge predicted
       N       E                     dE             d eps       ncg     rms          rms(c)
DAV:   1    -0.233823412023E+03    0.23412E-01   -0.71000E+00  3312   0.782E+00    0.835E-01
DAV:   2    -0.233861380827E+03   -0.37969E-01   -0.43758E-01  4352   0.220E+00    0.389E-01
DAV:   3    -0.233860927102E+03    0.45372E-03   -0.17610E-02  5704   0.401E-01    0.296E-01
DAV:   4    -0.233860480248E+03    0.44685E-03   -0.18550E-03  5952   0.137E-01    0.128E-01
DAV:   5    -0.233860275345E+03    0.20490E-03   -0.92153E-04  4872   0.814E-02    0.363E-02
DAV:   6    -0.233860294267E+03   -0.18922E-04   -0.18154E-04  4608   0.317E-02    0.363E-02
DAV:   7    -0.233860295170E+03   -0.90278E-06   -0.26211E-05  5680   0.112E-02    0.212E-02
DAV:   8    -0.233860295651E+03   -0.48147E-06   -0.26745E-06  2648   0.639E-03
  10 F= -.23386030E+03 E0= -.23386030E+03  d E =-.134721E-01
 trial-energy change:   -0.013472  1 .order   -0.013303   -0.017254   -0.009352
 step:   2.5545(harm=  2.8651)  dis= 0.02095  next Energy=  -233.864866 (dE=-0.180E-01)
 bond charge predicted
       N       E                     dE             d eps       ncg     rms          rms(c)
DAV:   1    -0.233831852028E+03    0.28443E-01   -0.63636E+00  3312   0.740E+00    0.796E-01
DAV:   2    -0.233866192195E+03   -0.34340E-01   -0.39581E-01  4288   0.208E+00    0.371E-01
DAV:   3    -0.233865767080E+03    0.42511E-03   -0.15824E-02  5704   0.381E-01    0.283E-01
DAV:   4    -0.233865359018E+03    0.40806E-03   -0.16750E-03  5928   0.130E-01    0.123E-01
DAV:   5    -0.233865171868E+03    0.18715E-03   -0.84907E-04  4888   0.784E-02    0.346E-02
DAV:   6    -0.233865189315E+03   -0.17447E-04   -0.16664E-04  4616   0.304E-02    0.350E-02
DAV:   7    -0.233865190255E+03   -0.94029E-06   -0.23854E-05  5624   0.109E-02    0.207E-02
DAV:   8    -0.233865190705E+03   -0.44993E-06   -0.26165E-06  2632   0.640E-03
  11 F= -.23386519E+03 E0= -.23386519E+03  d E =-.183671E-01
 curvature:  -3.24 expect dE=-0.347E-01 dE for cont linesearch -0.214E-04
 trial: gam= 0.62366 g(F)=  0.997E-02 g(S)=  0.736E-03 ort = 0.452E-03 (trialstep = 0.156E+01)
 search vector abs. value=  0.233E-01
 bond charge predicted
       N       E                     dE             d eps       ncg     rms          rms(c)
DAV:   1    -0.233816850868E+03    0.48339E-01   -0.73114E+00  3344   0.943E+00    0.875E-01
DAV:   2    -0.233876078337E+03   -0.59227E-01   -0.66887E-01  4160   0.239E+00    0.364E-01
DAV:   3    -0.233876430831E+03   -0.35249E-03   -0.27378E-02  5752   0.488E-01    0.288E-01
DAV:   4    -0.233875929310E+03    0.50152E-03   -0.22990E-03  5560   0.143E-01    0.137E-01
DAV:   5    -0.233875708730E+03    0.22058E-03   -0.11185E-03  4560   0.926E-02    0.463E-02
DAV:   6    -0.233875732953E+03   -0.24223E-04   -0.27988E-04  4792   0.401E-02    0.456E-02
DAV:   7    -0.233875728703E+03    0.42501E-05   -0.49436E-05  5392   0.158E-02    0.242E-02
DAV:   8    -0.233875727573E+03    0.11296E-05   -0.66530E-06  3712   0.847E-03    0.116E-02
DAV:   9    -0.233875726788E+03    0.78567E-06   -0.23492E-06  2168   0.532E-03
  12 F= -.23387573E+03 E0= -.23387573E+03  d E =-.105361E-01
 trial-energy change:   -0.010536  1 .order   -0.009694   -0.017146   -0.002242
 step:   1.7312(harm=  1.7954)  dis= 0.01715  next Energy=  -233.875850 (dE=-0.107E-01)
 bond charge predicted
       N       E                     dE             d eps       ncg     rms          rms(c)
DAV:   1    -0.233875174066E+03    0.55351E-03   -0.87457E-02  3352   0.103E+00    0.950E-02
DAV:   2    -0.233875881646E+03   -0.70758E-03   -0.79712E-03  4232   0.261E-01    0.391E-02
DAV:   3    -0.233875880544E+03    0.11014E-05   -0.28054E-04  5704   0.513E-02    0.308E-02
DAV:   4    -0.233875874685E+03    0.58595E-05   -0.25928E-05  5600   0.150E-02    0.144E-02
DAV:   5    -0.233875871675E+03    0.30096E-05   -0.12792E-05  4264   0.989E-03    0.506E-03
DAV:   6    -0.233875871676E+03   -0.51659E-09   -0.24583E-06  2344   0.450E-03
  13 F= -.23387587E+03 E0= -.23387587E+03  d E =-.106810E-01
 curvature:  -1.76 expect dE=-0.202E-01 dE for cont linesearch -0.311E-05
 trial: gam= 0.82065 g(F)=  0.109E-01 g(S)=  0.578E-03 ort = 0.203E-03 (trialstep = 0.135E+01)
 search vector abs. value=  0.275E-01
 bond charge predicted
       N       E                     dE             d eps       ncg     rms          rms(c)
DAV:   1    -0.233837752283E+03    0.38119E-01   -0.65236E+00  3328   0.863E+00    0.837E-01
DAV:   2    -0.233885160129E+03   -0.47408E-01   -0.55491E-01  4296   0.224E+00    0.391E-01
DAV:   3    -0.233884335438E+03    0.82469E-03   -0.19178E-02  5864   0.422E-01    0.303E-01
DAV:   4    -0.233883496071E+03    0.83937E-03   -0.26157E-03  5264   0.155E-01    0.126E-01
DAV:   5    -0.233883309875E+03    0.18620E-03   -0.97259E-04  4968   0.816E-02    0.413E-02
DAV:   6    -0.233883312420E+03   -0.25458E-05   -0.16046E-04  5480   0.317E-02    0.432E-02
DAV:   7    -0.233883310574E+03    0.18469E-05   -0.23098E-05  5048   0.123E-02    0.227E-02
DAV:   8    -0.233883306011E+03    0.45625E-05   -0.73684E-06  3752   0.810E-03    0.109E-02
DAV:   9    -0.233883305320E+03    0.69072E-06   -0.18437E-06  2072   0.526E-03
  14 F= -.23388331E+03 E0= -.23388331E+03  d E =-.743364E-02
 trial-energy change:   -0.007434  1 .order   -0.007010   -0.015736    0.001717
 step:   1.2343(harm=  1.2186)  dis= 0.01155  next Energy=  -233.883380 (dE=-0.751E-02)
 bond charge predicted
       N       E                     dE             d eps       ncg     rms          rms(c)
DAV:   1    -0.233883042345E+03    0.26367E-03   -0.49283E-02  3344   0.750E-01    0.716E-02
DAV:   2    -0.233883393014E+03   -0.35067E-03   -0.41300E-03  4320   0.196E-01    0.351E-02
DAV:   3    -0.233883385353E+03    0.76611E-05   -0.13054E-04  5600   0.359E-02    0.268E-02
DAV:   4    -0.233883379531E+03    0.58222E-05   -0.20449E-05  5144   0.133E-02    0.111E-02
DAV:   5    -0.233883379389E+03    0.14229E-06   -0.59820E-06  3432   0.683E-03
  15 F= -.23388338E+03 E0= -.23388338E+03  d E =-.750771E-02
 curvature:  -1.42 expect dE=-0.109E-01 dE for cont linesearch -0.317E-07
 trial: gam= 0.41156 g(F)=  0.749E-02 g(S)=  0.155E-03 ort =-0.248E-04 (trialstep = 0.133E+01)
 search vector abs. value=  0.123E-01
 bond charge predicted
       N       E                     dE             d eps       ncg     rms          rms(c)
DAV:   1    -0.233870940602E+03    0.12439E-01   -0.28435E+00  3328   0.551E+00    0.534E-01
DAV:   2    -0.233890433246E+03   -0.19493E-01   -0.21927E-01  4424   0.143E+00    0.237E-01
DAV:   3    -0.233890127984E+03    0.30526E-03   -0.75870E-03  5696   0.273E-01    0.185E-01
DAV:   4    -0.233889936071E+03    0.19191E-03   -0.79437E-04  5408   0.813E-02    0.873E-02
DAV:   5    -0.233889806619E+03    0.12945E-03   -0.43067E-04  4096   0.585E-02    0.323E-02
DAV:   6    -0.233889821169E+03   -0.14551E-04   -0.19654E-04  4760   0.318E-02    0.288E-02
DAV:   7    -0.233889818182E+03    0.29879E-05   -0.27767E-05  4880   0.112E-02    0.170E-02
DAV:   8    -0.233889817430E+03    0.75209E-06   -0.45893E-06  3496   0.719E-03
  16 F= -.23388982E+03 E0= -.23388982E+03  d E =-.643804E-02
 trial-energy change:   -0.006438  1 .order   -0.006355   -0.010140   -0.002570
 step:   1.7430(harm=  1.7789)  dis= 0.01105  next Energy=  -233.890221 (dE=-0.684E-02)
 bond charge predicted
       N       E                     dE             d eps       ncg     rms          rms(c)
DAV:   1    -0.233888315137E+03    0.15030E-02   -0.27790E-01  3336   0.173E+00    0.169E-01
DAV:   2    -0.233890258602E+03   -0.19435E-02   -0.21828E-02  4376   0.447E-01    0.746E-02
DAV:   3    -0.233890226369E+03    0.32233E-04   -0.74828E-04  5752   0.859E-02    0.588E-02
DAV:   4    -0.233890205939E+03    0.20430E-04   -0.79390E-05  5480   0.256E-02    0.279E-02
DAV:   5    -0.233890192807E+03    0.13132E-04   -0.44994E-05  3976   0.190E-02    0.100E-02
DAV:   6    -0.233890194332E+03   -0.15254E-05   -0.19727E-05  4320   0.103E-02    0.923E-03
DAV:   7    -0.233890193973E+03    0.35915E-06   -0.18033E-06  2176   0.419E-03
  17 F= -.23389019E+03 E0= -.23389019E+03  d E =-.681458E-02
 curvature:  -1.42 expect dE=-0.108E-01 dE for cont linesearch -0.226E-05
 trial: gam= 0.92900 g(F)=  0.744E-02 g(S)=  0.140E-03 ort =-0.140E-03 (trialstep = 0.967E+00)
 search vector abs. value=  0.179E-01
 bond charge predicted
       N       E                     dE             d eps       ncg     rms          rms(c)
DAV:   1    -0.233881865635E+03    0.83287E-02   -0.23757E+00  3328   0.493E+00    0.404E-01
DAV:   2    -0.233894940533E+03   -0.13075E-01   -0.14567E-01  4232   0.117E+00    0.172E-01
DAV:   3    -0.233894984722E+03   -0.44189E-04   -0.60365E-03  5720   0.235E-01    0.137E-01
DAV:   4    -0.233894915021E+03    0.69701E-04   -0.52036E-04  5896   0.696E-02    0.625E-02
DAV:   5    -0.233894866393E+03    0.48628E-04   -0.24274E-04  4592   0.428E-02    0.218E-02
DAV:   6    -0.233894874194E+03   -0.78017E-05   -0.76233E-05  4688   0.205E-02    0.182E-02
DAV:   7    -0.233894873463E+03    0.73107E-06   -0.10902E-05  4392   0.762E-03    0.106E-02
DAV:   8    -0.233894873588E+03   -0.12438E-06   -0.15325E-06  2136   0.433E-03
  18 F= -.23389487E+03 E0= -.23389487E+03  d E =-.467961E-02
 trial-energy change:   -0.004680  1 .order   -0.004541   -0.007207   -0.001875
 step:   1.2500(harm=  1.3070)  dis= 0.00996  next Energy=  -233.895151 (dE=-0.496E-02)
 bond charge predicted
       N       E                     dE             d eps       ncg     rms          rms(c)
DAV:   1    -0.233894074625E+03    0.79884E-03   -0.20352E-01  3328   0.144E+00    0.118E-01
DAV:   2    -0.233895197331E+03   -0.11227E-02   -0.12503E-02  4296   0.344E-01    0.508E-02
DAV:   3    -0.233895200668E+03   -0.33365E-05   -0.51291E-04  5704   0.690E-02    0.407E-02
DAV:   4    -0.233895194681E+03    0.59869E-05   -0.44161E-05  5840   0.205E-02    0.187E-02
DAV:   5    -0.233895190409E+03    0.42714E-05   -0.21505E-05  4224   0.128E-02    0.656E-03
DAV:   6    -0.233895191070E+03   -0.66032E-06   -0.64630E-06  3336   0.618E-03
  19 F= -.23389519E+03 E0= -.23389519E+03  d E =-.499710E-02
 curvature:  -1.53 expect dE=-0.546E-02 dE for cont linesearch -0.998E-05
 trial: gam= 0.19799 g(F)=  0.350E-02 g(S)=  0.774E-04 ort = 0.342E-03 (trialstep = 0.102E+01)
 search vector abs. value=  0.441E-02
 bond charge predicted
       N       E                     dE             d eps       ncg     rms          rms(c)
DAV:   1    -0.233891905240E+03    0.32852E-02   -0.57502E-01  3384   0.304E+00    0.251E-01
DAV:   2    -0.233897751615E+03   -0.58464E-02   -0.67821E-02  4192   0.695E-01    0.117E-01
DAV:   3    -0.233897747454E+03    0.41614E-05   -0.25928E-03  5528   0.148E-01    0.903E-02
DAV:   4    -0.233897677041E+03    0.70413E-04   -0.27128E-04  5552   0.465E-02    0.414E-02
DAV:   5    -0.233897654661E+03    0.22380E-04   -0.82953E-05  4984   0.243E-02    0.152E-02
DAV:   6    -0.233897652786E+03    0.18752E-05   -0.18729E-05  5336   0.107E-02    0.149E-02
DAV:   7    -0.233897651268E+03    0.15183E-05   -0.23454E-06  2472   0.478E-03    0.812E-03
DAV:   8    -0.233897649926E+03    0.13423E-05   -0.93228E-07  2000   0.491E-03    0.359E-03
DAV:   9    -0.233897649794E+03    0.13160E-06   -0.82463E-07  1984   0.398E-03
  20 F= -.23389765E+03 E0= -.23389765E+03  d E =-.245872E-02
 trial-energy change:   -0.002459  1 .order   -0.002411   -0.003728   -0.001093
 step:   1.3934(harm=  1.4484)  dis= 0.00531  next Energy=  -233.897850 (dE=-0.266E-02)
 bond charge predicted
       N       E                     dE             d eps       ncg     rms          rms(c)
DAV:   1    -0.233897143343E+03    0.50658E-03   -0.75234E-02  3392   0.110E+00    0.903E-02
DAV:   2    -0.233897907901E+03   -0.76456E-03   -0.88208E-03  4224   0.253E-01    0.445E-02
DAV:   3    -0.233897903744E+03    0.41571E-05   -0.32315E-04  5632   0.523E-02    0.330E-02
DAV:   4    -0.233897894873E+03    0.88716E-05   -0.30950E-05  5536   0.162E-02    0.154E-02
DAV:   5    -0.233897890547E+03    0.43256E-05   -0.96473E-06  3968   0.876E-03    0.570E-03
DAV:   6    -0.233897889647E+03    0.90028E-06   -0.24359E-06  2392   0.528E-03
  21 F= -.23389789E+03 E0= -.23389789E+03  d E =-.269858E-02
 curvature:  -0.86 expect dE=-0.227E-02 dE for cont linesearch -0.505E-05
 trial: gam= 0.70299 g(F)=  0.260E-02 g(S)=  0.309E-04 ort = 0.161E-03 (trialstep = 0.961E+00)
 search vector abs. value=  0.504E-02
 bond charge predicted
       N       E                     dE             d eps       ncg     rms          rms(c)
DAV:   1    -0.233896539720E+03    0.13508E-02   -0.63525E-01  3328   0.235E+00    0.233E-01
DAV:   2    -0.233900055675E+03   -0.35160E-02   -0.39251E-02  4368   0.622E-01    0.102E-01
DAV:   3    -0.233900040263E+03    0.15412E-04   -0.15501E-03  5816   0.117E-01    0.810E-02
DAV:   4    -0.233900017871E+03    0.22392E-04   -0.14560E-04  5800   0.368E-02    0.385E-02
DAV:   5    -0.233899999936E+03    0.17936E-04   -0.76220E-05  4656   0.224E-02    0.147E-02
DAV:   6    -0.233900001603E+03   -0.16673E-05   -0.23124E-05  4376   0.106E-02    0.870E-03
DAV:   7    -0.233900001226E+03    0.37710E-06   -0.22392E-06  2240   0.451E-03
  22 F= -.23390000E+03 E0= -.23390000E+03  d E =-.211158E-02
 trial-energy change:   -0.002112  1 .order   -0.002100   -0.002640   -0.001559
 step:   2.1657(harm=  2.3463)  dis= 0.01213  next Energy=  -233.901003 (dE=-0.311E-02)
 bond charge predicted
       N       E                     dE             d eps       ncg     rms          rms(c)
DAV:   1    -0.233895616681E+03    0.43849E-02   -0.10007E+00  3328   0.295E+00    0.286E-01
DAV:   2    -0.233901115963E+03   -0.54993E-02   -0.61355E-02  4432   0.776E-01    0.125E-01
DAV:   3    -0.233901099178E+03    0.16785E-04   -0.25051E-03  5824   0.147E-01    0.996E-02
DAV:   4    -0.233901065383E+03    0.33794E-04   -0.23009E-04  5752   0.464E-02    0.464E-02
DAV:   5    -0.233901038068E+03    0.27315E-04   -0.11911E-04  4624   0.281E-02    0.182E-02
DAV:   6    -0.233901040937E+03   -0.28690E-05   -0.36725E-05  4488   0.135E-02    0.107E-02
DAV:   7    -0.233901040543E+03    0.39374E-06   -0.50752E-06  3296   0.560E-03
  23 F= -.23390104E+03 E0= -.23390104E+03  d E =-.315090E-02
 curvature:  -2.12 expect dE=-0.661E-02 dE for cont linesearch -0.160E-05
 trial: gam= 1.15345 g(F)=  0.307E-02 g(S)=  0.496E-04 ort = 0.618E-04 (trialstep = 0.607E+00)
 search vector abs. value=  0.997E-02
 bond charge predicted
       N       E                     dE             d eps       ncg     rms          rms(c)
DAV:   1    -0.233900297877E+03    0.74306E-03   -0.51808E-01  3368   0.201E+00    0.189E-01
DAV:   2    -0.233902850385E+03   -0.25525E-02   -0.28689E-02  4416   0.512E-01    0.825E-02
DAV:   3    -0.233902858510E+03   -0.81255E-05   -0.12861E-03  5768   0.100E-01    0.657E-02
DAV:   4    -0.233902849071E+03    0.94393E-05   -0.10554E-04  5800   0.314E-02    0.305E-02
DAV:   5    -0.233902839447E+03    0.96242E-05   -0.51105E-05  4712   0.183E-02    0.118E-02
DAV:   6    -0.233902841296E+03   -0.18496E-05   -0.15042E-05  3992   0.875E-03    0.640E-03
DAV:   7    -0.233902841430E+03   -0.13386E-06   -0.11878E-06  1984   0.396E-03
  24 F= -.23390284E+03 E0= -.23390284E+03  d E =-.180089E-02
 trial-energy change:   -0.001801  1 .order   -0.001779   -0.001940   -0.001618
 step:   1.9321(harm=  3.6525)  dis= 0.01784  next Energy=  -233.904833 (dE=-0.379E-02)
 bond charge predicted
       N       E                     dE             d eps       ncg     rms          rms(c)
DAV:   1    -0.233892659635E+03    0.10182E-01   -0.24625E+00  3336   0.437E+00    0.412E-01
DAV:   2    -0.233904847396E+03   -0.12188E-01   -0.13671E-01  4440   0.112E+00    0.182E-01
DAV:   3    -0.233904887683E+03   -0.40287E-04   -0.61458E-03  5808   0.216E-01    0.145E-01
DAV:   4    -0.233904843804E+03    0.43879E-04   -0.50014E-04  5808   0.695E-02    0.684E-02
DAV:   5    -0.233904791709E+03    0.52095E-04   -0.26654E-04  4816   0.416E-02    0.256E-02
DAV:   6    -0.233904800278E+03   -0.85691E-05   -0.78261E-05  4584   0.194E-02    0.150E-02
DAV:   7    -0.233904800276E+03    0.17681E-08   -0.10045E-05  4200   0.728E-03    0.881E-03
DAV:   8    -0.233904800811E+03   -0.53514E-06   -0.14715E-06  2272   0.428E-03
  25 F= -.23390480E+03 E0= -.23390480E+03  d E =-.376027E-02
 curvature:  -3.88 expect dE=-0.184E-01 dE for cont linesearch -0.110E-06
 trial: gam= 0.91958 g(F)=  0.461E-02 g(S)=  0.144E-03 ort = 0.168E-04 (trialstep = 0.658E+00)
 search vector abs. value=  0.132E-01
 bond charge predicted
       N       E                     dE             d eps       ncg     rms          rms(c)
DAV:   1    -0.233903339296E+03    0.14610E-02   -0.83179E-01  3328   0.268E+00    0.227E-01
DAV:   2    -0.233907463151E+03   -0.41239E-02   -0.47156E-02  4312   0.625E-01    0.107E-01
DAV:   3    -0.233907504429E+03   -0.41279E-04   -0.23325E-03  5776   0.132E-01    0.806E-02
DAV:   4    -0.233907477220E+03    0.27210E-04   -0.19806E-04  5680   0.436E-02    0.358E-02
DAV:   5    -0.233907462297E+03    0.14922E-04   -0.65838E-05  5144   0.222E-02    0.122E-02
DAV:   6    -0.233907461719E+03    0.57863E-06   -0.12995E-05  4352   0.841E-03    0.101E-02
DAV:   7    -0.233907460755E+03    0.96359E-06   -0.10237E-06  1984   0.366E-03
  26 F= -.23390746E+03 E0= -.23390746E+03  d E =-.265994E-02
 trial-energy change:   -0.002660  1 .order   -0.002579   -0.003138   -0.002021
 step:   1.2997(harm=  1.8493)  dis= 0.01328  next Energy=  -233.908520 (dE=-0.372E-02)
 bond charge predicted
       N       E                     dE             d eps       ncg     rms          rms(c)
DAV:   1    -0.233904717166E+03    0.27446E-02   -0.78940E-01  3328   0.261E+00    0.222E-01
DAV:   2    -0.233908626886E+03   -0.39097E-02   -0.44682E-02  4328   0.611E-01    0.104E-01
DAV:   3    -0.233908656399E+03   -0.29512E-04   -0.21100E-03  5776   0.126E-01    0.784E-02
DAV:   4    -0.233908630292E+03    0.26107E-04   -0.18447E-04  5688   0.425E-02    0.347E-02
DAV:   5    -0.233908616242E+03    0.14050E-04   -0.62991E-05  5168   0.217E-02    0.116E-02
DAV:   6    -0.233908615659E+03    0.58314E-06   -0.11986E-05  4160   0.820E-03    0.970E-03
DAV:   7    -0.233908614744E+03    0.91448E-06   -0.10195E-06  1984   0.374E-03
  27 F= -.23390861E+03 E0= -.23390861E+03  d E =-.381393E-02
 curvature:  -2.02 expect dE=-0.728E-02 dE for cont linesearch -0.235E-04
 trial: gam= 0.26231 g(F)=  0.356E-02 g(S)=  0.511E-04 ort = 0.393E-03 (trialstep = 0.787E+00)
 search vector abs. value=  0.472E-02
 bond charge predicted
       N       E                     dE             d eps       ncg     rms          rms(c)
DAV:   1    -0.233909103456E+03   -0.48780E-03   -0.43980E-01  3368   0.198E+00    0.168E-01
DAV:   2    -0.233911110932E+03   -0.20075E-02   -0.23204E-02  4288   0.441E-01    0.793E-02
DAV:   3    -0.233911085587E+03    0.25345E-04   -0.92720E-04  5688   0.899E-02    0.585E-02
DAV:   4    -0.233911062975E+03    0.22612E-04   -0.10974E-04  5480   0.329E-02    0.248E-02
DAV:   5    -0.233911053989E+03    0.89865E-05   -0.32980E-05  5128   0.158E-02    0.944E-03
DAV:   6    -0.233911052556E+03    0.14325E-05   -0.67495E-06  3792   0.686E-03    0.847E-03
DAV:   7    -0.233911051423E+03    0.11335E-05   -0.10849E-06  1984   0.383E-03    0.394E-03
DAV:   8    -0.233911050738E+03    0.68457E-06   -0.57315E-07  1984   0.421E-03
  28 F= -.23391105E+03 E0= -.23391105E+03  d E =-.243599E-02
 trial-energy change:   -0.002436  1 .order   -0.002405   -0.002920   -0.001890
 step:   1.8035(harm=  2.2300)  dis= 0.01055  next Energy=  -233.912340 (dE=-0.373E-02)
 bond charge predicted
       N       E                     dE             d eps       ncg     rms          rms(c)
DAV:   1    -0.233909278468E+03    0.17730E-02   -0.73455E-01  3336   0.256E+00    0.217E-01
DAV:   2    -0.233912638399E+03   -0.33599E-02   -0.38875E-02  4280   0.577E-01    0.103E-01
DAV:   3    -0.233912594470E+03    0.43929E-04   -0.15240E-03  5712   0.116E-01    0.762E-02
DAV:   4    -0.233912555556E+03    0.38914E-04   -0.18558E-04  5480   0.426E-02    0.326E-02
DAV:   5    -0.233912541491E+03    0.14065E-04   -0.57601E-05  5248   0.208E-02    0.122E-02
DAV:   6    -0.233912539880E+03    0.16113E-05   -0.12435E-05  4840   0.886E-03    0.116E-02
DAV:   7    -0.233912538481E+03    0.13991E-05   -0.12848E-06  1984   0.400E-03    0.556E-03
DAV:   8    -0.233912537437E+03    0.10440E-05   -0.72087E-07  2048   0.468E-03    0.248E-03
DAV:   9    -0.233912537317E+03    0.11937E-06   -0.50543E-07  1984   0.343E-03
  29 F= -.23391254E+03 E0= -.23391254E+03  d E =-.392257E-02
 curvature:  -1.30 expect dE=-0.276E-02 dE for cont linesearch -0.527E-04
 ZBRENT: extrapolating
 opt :   2.0305  next Energy=  -233.912587 (dE=-0.397E-02)
 bond charge predicted
       N       E                     dE             d eps       ncg     rms          rms(c)
DAV:   1    -0.233912431681E+03    0.10576E-03   -0.36652E-02  3336   0.572E-01    0.484E-02
DAV:   2    -0.233912600596E+03   -0.16892E-03   -0.19380E-03  4288   0.129E-01    0.231E-02
DAV:   3    -0.233912598514E+03    0.20823E-05   -0.75790E-05  5720   0.259E-02    0.170E-02
DAV:   4    -0.233912596258E+03    0.22557E-05   -0.88346E-06  4672   0.947E-03    0.718E-03
DAV:   5    -0.233912594869E+03    0.13895E-05   -0.18418E-06  2032   0.500E-03    0.257E-03
DAV:   6    -0.233912594494E+03    0.37522E-06   -0.10999E-06  1984   0.543E-03
  30 F= -.23391259E+03 E0= -.23391259E+03  d E =-.397975E-02
 curvature:  -1.22 expect dE=-0.304E-02 dE for cont linesearch -0.612E-06
 trial: gam= 0.65123 g(F)=  0.241E-02 g(S)=  0.834E-04 ort = 0.486E-04 (trialstep = 0.104E+01)
 search vector abs. value=  0.456E-02
 bond charge predicted
       N       E                     dE             d eps       ncg     rms          rms(c)
DAV:   1    -0.233910440863E+03    0.21540E-02   -0.71846E-01  3328   0.255E+00    0.209E-01
DAV:   2    -0.233914290447E+03   -0.38496E-02   -0.43184E-02  4448   0.578E-01    0.888E-02
DAV:   3    -0.233914283567E+03    0.68797E-05   -0.15331E-03  5744   0.110E-01    0.686E-02
DAV:   4    -0.233914261434E+03    0.22133E-04   -0.13888E-04  5632   0.344E-02    0.329E-02
DAV:   5    -0.233914248146E+03    0.13288E-04   -0.57808E-05  4504   0.213E-02    0.112E-02
DAV:   6    -0.233914250070E+03   -0.19235E-05   -0.21685E-05  4544   0.109E-02    0.111E-02
DAV:   7    -0.233914249908E+03    0.16149E-06   -0.42229E-06  3000   0.526E-03
  31 F= -.23391425E+03 E0= -.23391425E+03  d E =-.165541E-02
 trial-energy change:   -0.001655  1 .order   -0.001609   -0.002610   -0.000607
 step:   1.3024(harm=  1.3496)  dis= 0.01028  next Energy=  -233.914329 (dE=-0.173E-02)
 bond charge predicted
       N       E                     dE             d eps       ncg     rms          rms(c)
DAV:   1    -0.233914070139E+03    0.17993E-03   -0.47813E-02  3328   0.657E-01    0.537E-02
DAV:   2    -0.233914325150E+03   -0.25501E-03   -0.28683E-03  4432   0.150E-01    0.228E-02
DAV:   3    -0.233914325434E+03   -0.28405E-06   -0.10776E-04  5688   0.287E-02    0.176E-02
DAV:   4    -0.233914324028E+03    0.14068E-05   -0.90271E-06  4720   0.913E-03    0.847E-03
DAV:   5    -0.233914323327E+03    0.70022E-06   -0.40473E-06  3024   0.611E-03
  32 F= -.23391432E+03 E0= -.23391432E+03  d E =-.172883E-02
 curvature:  -1.19 expect dE=-0.177E-02 dE for cont linesearch -0.147E-06
 trial: gam= 0.46086 g(F)=  0.145E-02 g(S)=  0.345E-04 ort =-0.237E-04 (trialstep = 0.109E+01)
 search vector abs. value=  0.243E-02
 bond charge predicted
       N       E                     dE             d eps       ncg     rms          rms(c)
DAV:   1    -0.233913548289E+03    0.77574E-03   -0.41293E-01  3328   0.185E+00    0.172E-01
DAV:   2    -0.233915476827E+03   -0.19285E-02   -0.22575E-02  4424   0.459E-01    0.867E-02
DAV:   3    -0.233915464030E+03    0.12796E-04   -0.10174E-03  5736   0.902E-02    0.652E-02
DAV:   4    -0.233915445216E+03    0.18814E-04   -0.96827E-05  5720   0.308E-02    0.298E-02
DAV:   5    -0.233915436765E+03    0.84513E-05   -0.44512E-05  4960   0.185E-02    0.841E-03
DAV:   6    -0.233915438404E+03   -0.16392E-05   -0.89376E-06  3768   0.737E-03    0.868E-03
DAV:   7    -0.233915438889E+03   -0.48512E-06   -0.10288E-06  1984   0.356E-03
  33 F= -.23391544E+03 E0= -.23391544E+03  d E =-.111556E-02
 trial-energy change:   -0.001116  1 .order   -0.001108   -0.001601   -0.000616
 step:   1.7251(harm=  1.7698)  dis= 0.00661  next Energy=  -233.915620 (dE=-0.130E-02)
 bond charge predicted
       N       E                     dE             d eps       ncg     rms          rms(c)
DAV:   1    -0.233914981946E+03    0.45646E-03   -0.14113E-01  3328   0.108E+00    0.102E-01
DAV:   2    -0.233915648371E+03   -0.66643E-03   -0.77919E-03  4408   0.269E-01    0.508E-02
DAV:   3    -0.233915643539E+03    0.48319E-05   -0.35029E-04  5728   0.529E-02    0.382E-02
DAV:   4    -0.233915637054E+03    0.64850E-05   -0.33042E-05  5568   0.181E-02    0.175E-02
DAV:   5    -0.233915634577E+03    0.24777E-05   -0.15605E-05  4656   0.111E-02    0.488E-03
DAV:   6    -0.233915635314E+03   -0.73729E-06   -0.27301E-06  2424   0.471E-03
  34 F= -.23391564E+03 E0= -.23391564E+03  d E =-.131199E-02
 curvature:  -1.45 expect dE=-0.179E-02 dE for cont linesearch -0.118E-05
 trial: gam= 0.60426 g(F)=  0.117E-02 g(S)=  0.651E-04 ort = 0.443E-04 (trialstep = 0.122E+01)
 search vector abs. value=  0.217E-02
 bond charge predicted
       N       E                     dE             d eps       ncg     rms          rms(c)
DAV:   1    -0.233914653093E+03    0.98148E-03   -0.44659E-01  3384   0.188E+00    0.198E-01
DAV:   2    -0.233916889714E+03   -0.22366E-02   -0.26866E-02  4280   0.487E-01    0.996E-02
DAV:   3    -0.233916836654E+03    0.53060E-04   -0.11358E-03  5776   0.966E-02    0.745E-02
DAV:   4    -0.233916795920E+03    0.40734E-04   -0.14522E-04  5248   0.369E-02    0.308E-02
DAV:   5    -0.233916781934E+03    0.13985E-04   -0.48672E-05  5040   0.181E-02    0.104E-02
DAV:   6    -0.233916780162E+03    0.17724E-05   -0.85502E-06  4048   0.759E-03    0.948E-03
DAV:   7    -0.233916779198E+03    0.96418E-06   -0.10849E-06  1984   0.383E-03
  35 F= -.23391678E+03 E0= -.23391678E+03  d E =-.114388E-02
 trial-energy change:   -0.001144  1 .order   -0.001136   -0.001533   -0.000739
 step:   2.2308(harm=  2.3468)  dis= 0.00528  next Energy=  -233.917092 (dE=-0.146E-02)
 bond charge predicted
       N       E                     dE             d eps       ncg     rms          rms(c)
DAV:   1    -0.233915662332E+03    0.11178E-02   -0.31112E-01  3384   0.157E+00    0.166E-01
DAV:   2    -0.233917218096E+03   -0.15558E-02   -0.18653E-02  4288   0.408E-01    0.836E-02
DAV:   3    -0.233917180710E+03    0.37386E-04   -0.78277E-04  5736   0.805E-02    0.626E-02
DAV:   4    -0.233917151862E+03    0.28848E-04   -0.10390E-04  5272   0.310E-02    0.257E-02
DAV:   5    -0.233917141771E+03    0.10091E-04   -0.33433E-05  5056   0.151E-02    0.872E-03
DAV:   6    -0.233917140146E+03    0.16246E-05   -0.56195E-06  3688   0.643E-03    0.759E-03
DAV:   7    -0.233917139324E+03    0.82192E-06   -0.86805E-07  1984   0.334E-03
  36 F= -.23391714E+03 E0= -.23391714E+03  d E =-.150401E-02
 curvature:  -2.00 expect dE=-0.260E-02 dE for cont linesearch -0.481E-05
 trial: gam= 0.98804 g(F)=  0.125E-02 g(S)=  0.482E-04 ort = 0.723E-04 (trialstep = 0.866E+00)
 search vector abs. value=  0.356E-02
 bond charge predicted
       N       E                     dE             d eps       ncg     rms          rms(c)
DAV:   1    -0.233916644095E+03    0.49605E-03   -0.38809E-01  3328   0.148E+00    0.163E-01
DAV:   2    -0.233918142372E+03   -0.14983E-02   -0.16810E-02  4384   0.386E-01    0.714E-02
DAV:   3    -0.233918134328E+03    0.80436E-05   -0.75103E-04  5680   0.726E-02    0.526E-02
DAV:   4    -0.233918120810E+03    0.13519E-04   -0.79747E-05  5592   0.244E-02    0.227E-02
DAV:   5    -0.233918116371E+03    0.44391E-05   -0.28007E-05  4664   0.141E-02    0.634E-03
DAV:   6    -0.233918117137E+03   -0.76697E-06   -0.61308E-06  3416   0.614E-03
  37 F= -.23391812E+03 E0= -.23391812E+03  d E =-.977813E-03
 trial-energy change:   -0.000978  1 .order   -0.000944   -0.001185   -0.000703
 step:   1.5777(harm=  2.1282)  dis= 0.00749  next Energy=  -233.918425 (dE=-0.129E-02)
 bond charge predicted
       N       E                     dE             d eps       ncg     rms          rms(c)
DAV:   1    -0.233917417602E+03    0.69877E-03   -0.26213E-01  3328   0.122E+00    0.137E-01
DAV:   2    -0.233918429369E+03   -0.10118E-02   -0.11381E-02  4384   0.316E-01    0.582E-02
DAV:   3    -0.233918424356E+03    0.50133E-05   -0.50993E-04  5672   0.603E-02    0.429E-02
DAV:   4    -0.233918415292E+03    0.90637E-05   -0.54007E-05  5576   0.201E-02    0.183E-02
DAV:   5    -0.233918412659E+03    0.26334E-05   -0.18473E-05  4608   0.115E-02    0.516E-03
DAV:   6    -0.233918413167E+03   -0.50792E-06   -0.36255E-06  2856   0.506E-03
  38 F= -.23391841E+03 E0= -.23391841E+03  d E =-.127384E-02
 curvature:  -2.24 expect dE=-0.221E-02 dE for cont linesearch -0.804E-06
 trial: gam= 0.42512 g(F)=  0.967E-03 g(S)=  0.203E-04 ort =-0.357E-04 (trialstep = 0.101E+01)
 search vector abs. value=  0.160E-02
 bond charge predicted
       N       E                     dE             d eps       ncg     rms          rms(c)
DAV:   1    -0.233917992956E+03    0.41970E-03   -0.23171E-01  3328   0.131E+00    0.137E-01
DAV:   2    -0.233919062581E+03   -0.10696E-02   -0.12372E-02  4376   0.338E-01    0.662E-02
DAV:   3    -0.233919047592E+03    0.14989E-04   -0.52726E-04  5632   0.667E-02    0.496E-02
DAV:   4    -0.233919035070E+03    0.12521E-04   -0.60343E-05  5472   0.233E-02    0.212E-02
DAV:   5    -0.233919032569E+03    0.25010E-05   -0.22350E-05  4848   0.129E-02    0.683E-03
DAV:   6    -0.233919033830E+03   -0.12606E-05   -0.41731E-06  3256   0.573E-03    0.568E-03
DAV:   7    -0.233919034331E+03   -0.50084E-06   -0.62468E-07  1984   0.341E-03
  39 F= -.23391903E+03 E0= -.23391903E+03  d E =-.621164E-03
 trial-energy change:   -0.000621  1 .order   -0.000615   -0.000980   -0.000249
 step:   1.3300(harm=  1.3527)  dis= 0.00463  next Energy=  -233.919074 (dE=-0.661E-03)
 bond charge predicted
       N       E                     dE             d eps       ncg     rms          rms(c)
DAV:   1    -0.233918966674E+03    0.67156E-04   -0.23579E-02  3328   0.419E-01    0.439E-02
DAV:   2    -0.233919076448E+03   -0.10977E-03   -0.12756E-03  4424   0.108E-01    0.206E-02
DAV:   3    -0.233919074344E+03    0.21039E-05   -0.49245E-05  5648   0.207E-02    0.156E-02
DAV:   4    -0.233919073119E+03    0.12252E-05   -0.51136E-06  3688   0.753E-03    0.683E-03
DAV:   5    -0.233919073186E+03   -0.67081E-07   -0.39682E-06  2792   0.543E-03
  40 F= -.23391907E+03 E0= -.23391907E+03  d E =-.660020E-03
 curvature:  -1.11 expect dE=-0.522E-03 dE for cont linesearch -0.135E-07
 trial: gam= 0.21159 g(F)=  0.449E-03 g(S)=  0.213E-04 ort = 0.441E-05 (trialstep = 0.107E+01)
 search vector abs. value=  0.544E-03
 bond charge predicted
       N       E                     dE             d eps       ncg     rms          rms(c)
DAV:   1    -0.233919015981E+03    0.57138E-04   -0.84106E-02  3440   0.842E-01    0.984E-02
DAV:   2    -0.233919476093E+03   -0.46011E-03   -0.55742E-03  4232   0.230E-01    0.475E-02
DAV:   3    -0.233919458561E+03    0.17533E-04   -0.19637E-04  5600   0.444E-02    0.356E-02
DAV:   4    -0.233919446540E+03    0.12021E-04   -0.35602E-05  5184   0.177E-02    0.142E-02
DAV:   5    -0.233919442884E+03    0.36559E-05   -0.10279E-05  4296   0.858E-03    0.525E-03
DAV:   6    -0.233919441645E+03    0.12384E-05   -0.12428E-06  2040   0.439E-03    0.344E-03
DAV:   7    -0.233919441066E+03    0.57989E-06   -0.54807E-07  1984   0.468E-03
  41 F= -.23391944E+03 E0= -.23391944E+03  d E =-.367879E-03
 trial-energy change:   -0.000368  1 .order   -0.000365   -0.000506   -0.000224
 step:   1.9248(harm=  1.9248)  dis= 0.00428  next Energy=  -233.919527 (dE=-0.454E-03)
 bond charge predicted
       N       E                     dE             d eps       ncg     rms          rms(c)
DAV:   1    -0.233919263501E+03    0.17814E-03   -0.53094E-02  3424   0.669E-01    0.781E-02
DAV:   2    -0.233919553719E+03   -0.29022E-03   -0.35054E-03  4240   0.182E-01    0.376E-02
DAV:   3    -0.233919542980E+03    0.10739E-04   -0.12442E-04  5592   0.353E-02    0.283E-02
DAV:   4    -0.233919535274E+03    0.77056E-05   -0.22252E-05  5088   0.141E-02    0.113E-02
DAV:   5    -0.233919532587E+03    0.26872E-05   -0.60075E-06  3456   0.696E-03    0.410E-03
DAV:   6    -0.233919531605E+03    0.98195E-06   -0.11839E-06  2080   0.432E-03
  42 F= -.23391953E+03 E0= -.23391953E+03  d E =-.458419E-03
 curvature:  -1.11 expect dE=-0.254E-03 dE for cont linesearch -0.108E-09
 trial: gam= 0.50072 g(F)=  0.224E-03 g(S)=  0.509E-05 ort = 0.230E-06 (trialstep = 0.124E+01)
 search vector abs. value=  0.366E-03
 bond charge predicted
       N       E                     dE             d eps       ncg     rms          rms(c)
DAV:   1    -0.233919138266E+03    0.39432E-03   -0.66479E-02  3344   0.882E-01    0.950E-02
DAV:   2    -0.233919716965E+03   -0.57870E-03   -0.65342E-03  4256   0.240E-01    0.400E-02
DAV:   3    -0.233919710701E+03    0.62633E-05   -0.20758E-04  5504   0.444E-02    0.307E-02
DAV:   4    -0.233919704590E+03    0.61108E-05   -0.21459E-05  5392   0.127E-02    0.150E-02
DAV:   5    -0.233919702135E+03    0.24557E-05   -0.11401E-05  4080   0.906E-03    0.470E-03
DAV:   6    -0.233919702388E+03   -0.25320E-06   -0.24131E-06  2408   0.436E-03
  43 F= -.23391970E+03 E0= -.23391970E+03  d E =-.170783E-03
 trial-energy change:   -0.000171  1 .order   -0.000177   -0.000285   -0.000069
 step:   1.7580(harm=  1.6380)  dis= 0.00255  next Energy=  -233.919716 (dE=-0.185E-03)
 bond charge predicted
       N       E                     dE             d eps       ncg     rms          rms(c)
DAV:   1    -0.233919613826E+03    0.88309E-04   -0.11414E-02  3336   0.365E-01    0.402E-02
DAV:   2    -0.233919713707E+03   -0.99881E-04   -0.11338E-03  4288   0.998E-02    0.164E-02
DAV:   3    -0.233919712647E+03    0.10598E-05   -0.36283E-05  5480   0.186E-02    0.125E-02
DAV:   4    -0.233919711536E+03    0.11107E-05   -0.23175E-06  2632   0.552E-03    0.683E-03
DAV:   5    -0.233919711351E+03    0.18588E-06   -0.67752E-06  3408   0.633E-03
  44 F= -.23391971E+03 E0= -.23391971E+03  d E =-.179746E-03
 curvature:  -1.19 expect dE=-0.319E-03 dE for cont linesearch -0.216E-05
 trial: gam= 1.24573 g(F)=  0.267E-03 g(S)=  0.140E-05 ort =-0.258E-04 (trialstep = 0.638E+00)
 search vector abs. value=  0.772E-03
 bond charge predicted
       N       E                     dE             d eps       ncg     rms          rms(c)
DAV:   1    -0.233919648047E+03    0.63489E-04   -0.39260E-02  3328   0.509E-01    0.691E-02
DAV:   2    -0.233919850510E+03   -0.20246E-03   -0.22920E-03  4440   0.152E-01    0.304E-02
DAV:   3    -0.233919848404E+03    0.21054E-05   -0.94464E-05  5696   0.284E-02    0.220E-02
DAV:   4    -0.233919846189E+03    0.22155E-05   -0.94159E-06  4704   0.912E-03    0.106E-02
DAV:   5    -0.233919845340E+03    0.84925E-06   -0.47201E-06  3072   0.588E-03
  45 F= -.23391985E+03 E0= -.23391985E+03  d E =-.133989E-03
 trial-energy change:   -0.000134  1 .order   -0.000131   -0.000151   -0.000112
 step:   2.4614(harm=  2.4614)  dis= 0.00699  next Energy=  -233.920003 (dE=-0.291E-03)
 bond charge predicted
       N       E                     dE             d eps       ncg     rms          rms(c)
DAV:   1    -0.233918366665E+03    0.14795E-02   -0.32039E-01  3328   0.145E+00    0.195E-01
DAV:   2    -0.233920021819E+03   -0.16552E-02   -0.18648E-02  4432   0.434E-01    0.892E-02
DAV:   3    -0.233920003961E+03    0.17858E-04   -0.77526E-04  5656   0.811E-02    0.645E-02
DAV:   4    -0.233919984363E+03    0.19598E-04   -0.80034E-05  5720   0.259E-02    0.312E-02
DAV:   5    -0.233919976439E+03    0.79245E-05   -0.40376E-05  4584   0.160E-02    0.958E-03
DAV:   6    -0.233919977410E+03   -0.97071E-06   -0.93575E-06  3360   0.722E-03
  46 F= -.23391998E+03 E0= -.23391998E+03  d E =-.266059E-03
 curvature:  -4.01 expect dE=-0.141E-02 dE for cont linesearch -0.472E-05
 trial: gam= 1.22208 g(F)=  0.321E-03 g(S)=  0.290E-04 ort =-0.301E-04 (trialstep = 0.541E+00)
 search vector abs. value=  0.143E-02
 bond charge predicted
       N       E                     dE             d eps       ncg     rms          rms(c)
DAV:   1    -0.233919860795E+03    0.11564E-03   -0.54510E-02  3416   0.578E-01    0.797E-02
DAV:   2    -0.233920149690E+03   -0.28890E-03   -0.34356E-03  4344   0.175E-01    0.366E-02
DAV:   3    -0.233920142678E+03    0.70128E-05   -0.12668E-04  5576   0.335E-02    0.276E-02
DAV:   4    -0.233920137381E+03    0.52966E-05   -0.18048E-05  5184   0.127E-02    0.117E-02
DAV:   5    -0.233920134994E+03    0.23875E-05   -0.52811E-06  3432   0.615E-03    0.403E-03
DAV:   6    -0.233920134255E+03    0.73872E-06   -0.10454E-06  2032   0.358E-03
  47 F= -.23392013E+03 E0= -.23392013E+03  d E =-.156845E-03
 ZBRENT: can't locate minimum, use default step
 trial-energy change:   -0.000157  1 .order   -0.000155   -0.000170   -0.000140
 step:   2.1648(harm=  3.0506)  dis= 0.00988  next Energy=  -233.920456 (dE=-0.478E-03)
 bond charge predicted
       N       E                     dE             d eps       ncg     rms          rms(c)
DAV:   1    -0.233917917289E+03    0.22177E-02   -0.48993E-01  3416   0.173E+00    0.234E-01
DAV:   2    -0.233920504525E+03   -0.25872E-02   -0.30798E-02  4312   0.525E-01    0.112E-01
DAV:   3    -0.233920440409E+03    0.64116E-04   -0.11441E-03  5608   0.999E-02    0.848E-02
DAV:   4    -0.233920394190E+03    0.46220E-04   -0.16007E-04  5432   0.376E-02    0.368E-02
DAV:   5    -0.233920379330E+03    0.14860E-04   -0.55101E-05  4976   0.182E-02    0.124E-02
DAV:   6    -0.233920377366E+03    0.19639E-05   -0.71599E-06  3520   0.652E-03    0.745E-03
DAV:   7    -0.233920376338E+03    0.10280E-05   -0.11499E-06  2024   0.393E-03    0.421E-03
DAV:   8    -0.233920375815E+03    0.52251E-06   -0.50937E-07  1984   0.429E-03
  48 F= -.23392038E+03 E0= -.23392038E+03  d E =-.398406E-03
 curvature:  -6.09 expect dE=-0.206E-02 dE for cont linesearch -0.438E-05
 trial: gam= 0.76721 g(F)=  0.323E-03 g(S)=  0.151E-04 ort = 0.321E-04 (trialstep = 0.866E+00)
 search vector abs. value=  0.123E-02
 bond charge predicted
       N       E                     dE             d eps       ncg     rms          rms(c)
DAV:   1    -0.233920097250E+03    0.27909E-03   -0.12895E-01  3328   0.928E-01    0.957E-02
DAV:   2    -0.233920651764E+03   -0.55451E-03   -0.62268E-03  4344   0.243E-01    0.420E-02
DAV:   3    -0.233920650763E+03    0.10013E-05   -0.26354E-04  5560   0.464E-02    0.315E-02
DAV:   4    -0.233920646325E+03    0.44376E-05   -0.25326E-05  5392   0.150E-02    0.140E-02
DAV:   5    -0.233920643923E+03    0.24022E-05   -0.11205E-05  4128   0.891E-03    0.415E-03
DAV:   6    -0.233920643991E+03   -0.68183E-07   -0.20703E-06  2360   0.414E-03
  49 F= -.23392064E+03 E0= -.23392064E+03  d E =-.268176E-03
 trial-energy change:   -0.000268  1 .order   -0.000267   -0.000314   -0.000220
 step:   2.8871(harm=  2.8871)  dis= 0.01396  next Energy=  -233.920900 (dE=-0.524E-03)
 bond charge predicted
       N       E                     dE             d eps       ncg     rms          rms(c)
DAV:   1    -0.233917934471E+03    0.27095E-02   -0.70217E-01  3328   0.216E+00    0.223E-01
DAV:   2    -0.233920960023E+03   -0.30256E-02   -0.34050E-02  4336   0.571E-01    0.982E-02
DAV:   3    -0.233920956600E+03    0.34227E-05   -0.14571E-03  5608   0.108E-01    0.734E-02
DAV:   4    -0.233920933729E+03    0.22872E-04   -0.13692E-04  5768   0.352E-02    0.333E-02
DAV:   5    -0.233920921151E+03    0.12578E-04   -0.65364E-05  4728   0.208E-02    0.971E-03
DAV:   6    -0.233920922383E+03   -0.12328E-05   -0.14960E-05  4072   0.911E-03    0.894E-03
DAV:   7    -0.233920922086E+03    0.29732E-06   -0.11734E-06  1992   0.381E-03
  50 F= -.23392092E+03 E0= -.23392092E+03  d E =-.546271E-03
 curvature:  -4.89 expect dE=-0.321E-02 dE for cont linesearch -0.475E-06
 trial: gam= 2.16701 g(F)=  0.648E-03 g(S)=  0.855E-05 ort =-0.109E-04 (trialstep = 0.245E+00)
 search vector abs. value=  0.638E-02
 bond charge predicted
       N       E                     dE             d eps       ncg     rms          rms(c)
DAV:   1    -0.233920891505E+03    0.30879E-04   -0.55604E-02  3288   0.509E-01    0.581E-02
DAV:   2    -0.233921073185E+03   -0.18168E-03   -0.20334E-03  4576   0.137E-01    0.261E-02
DAV:   3    -0.233921073569E+03   -0.38364E-06   -0.95017E-05  5600   0.257E-02    0.186E-02
DAV:   4    -0.233921072154E+03    0.14155E-05   -0.91444E-06  4312   0.882E-03    0.824E-03
DAV:   5    -0.233921071789E+03    0.36453E-06   -0.34091E-06  2928   0.526E-03
  51 F= -.23392107E+03 E0= -.23392107E+03  d E =-.149703E-03
 ZBRENT: can't locate minimum, use default step
 trial-energy change:   -0.000150  1 .order   -0.000148   -0.000155   -0.000141
 step:   0.9787(harm=  2.6938)  dis= 0.01236  next Energy=  -233.921774 (dE=-0.852E-03)
 bond charge predicted
       N       E                     dE             d eps       ncg     rms          rms(c)
DAV:   1    -0.233919789752E+03    0.12824E-02   -0.49931E-01  3288   0.152E+00    0.172E-01
DAV:   2    -0.233921381015E+03   -0.15913E-02   -0.17868E-02  4528   0.397E-01    0.770E-02
DAV:   3    -0.233921385882E+03   -0.48672E-05   -0.82414E-04  5648   0.746E-02    0.547E-02
DAV:   4    -0.233921374601E+03    0.11281E-04   -0.79863E-05  5536   0.256E-02    0.242E-02
DAV:   5    -0.233921371082E+03    0.35189E-05   -0.32426E-05  4640   0.144E-02    0.685E-03
DAV:   6    -0.233921371772E+03   -0.69020E-06   -0.55107E-06  3336   0.589E-03
  52 F= -.23392137E+03 E0= -.23392137E+03  d E =-.449686E-03
 curvature:  -6.92 expect dE=-0.437E-02 dE for cont linesearch -0.600E-04
 ZBRENT: increasing intervall
 opt :   2.4466  next Energy=  -233.921218 (dE=-0.296E-03)
 bond charge predicted
       N       E                     dE             d eps       ncg     rms          rms(c)
DAV:   1    -0.233914257861E+03    0.71132E-02   -0.19947E+00  3280   0.305E+00    0.348E-01
DAV:   2    -0.233920750894E+03   -0.64930E-02   -0.72861E-02  4520   0.799E-01    0.155E-01
DAV:   3    -0.233920815495E+03   -0.64601E-04   -0.37489E-03  5664   0.151E-01    0.111E-01
DAV:   4    -0.233920771384E+03    0.44112E-04   -0.32609E-04  5656   0.524E-02    0.507E-02
DAV:   5    -0.233920753353E+03    0.18030E-04   -0.14703E-04  4864   0.304E-02    0.140E-02
DAV:   6    -0.233920756681E+03   -0.33280E-05   -0.29962E-05  4784   0.124E-02    0.137E-02
DAV:   7    -0.233920756604E+03    0.76940E-07   -0.33832E-06  2848   0.507E-03
  53 F= -.23392076E+03 E0= -.23392076E+03  d E =0.165482E-03
 curvature:  17.75 expect dE= 0.275E-01 dE for cont linesearch  0.367E-02
 ZBRENT: bracketing found
 ZBRENT: interpolating
 opt :   1.2281  next Energy=  -233.921401 (dE=-0.479E-03)
 bond charge predicted
       N       E                     dE             d eps       ncg     rms          rms(c)
DAV:   1    -0.233916966889E+03    0.37898E-02   -0.13742E+00  3312   0.254E+00    0.285E-01
DAV:   2    -0.233921414937E+03   -0.44480E-02   -0.49839E-02  4488   0.665E-01    0.130E-01
DAV:   3    -0.233921453214E+03   -0.38277E-04   -0.25049E-03  5664   0.125E-01    0.933E-02
DAV:   4    -0.233921420194E+03    0.33020E-04   -0.22041E-04  5680   0.431E-02    0.429E-02
DAV:   5    -0.233921406927E+03    0.13267E-04   -0.10100E-04  4672   0.250E-02    0.116E-02
DAV:   6    -0.233921408670E+03   -0.17431E-05   -0.18764E-05  4240   0.102E-02    0.114E-02
DAV:   7    -0.233921408382E+03    0.28719E-06   -0.19909E-06  2216   0.426E-03
  54 F= -.23392141E+03 E0= -.23392141E+03  d E =-.486296E-03
 curvature:  -0.14 expect dE=-0.987E-04 dE for cont linesearch -0.121E-06
 trial: gam= 0.30969 g(F)=  0.684E-03 g(S)=  0.115E-04 ort = 0.738E-04 (trialstep = 0.441E+00)
 search vector abs. value=  0.135E-02
 bond charge predicted
       N       E                     dE             d eps       ncg     rms          rms(c)
DAV:   1    -0.233921503545E+03   -0.94875E-04   -0.38616E-02  3344   0.572E-01    0.458E-02
DAV:   2    -0.233921694941E+03   -0.19140E-03   -0.21347E-03  4240   0.132E-01    0.197E-02
DAV:   3    -0.233921695018E+03   -0.76594E-07   -0.71979E-05  5648   0.250E-02    0.151E-02
DAV:   4    -0.233921693820E+03    0.11977E-05   -0.54978E-06  3880   0.723E-03    0.765E-03
DAV:   5    -0.233921693097E+03    0.72338E-06   -0.39648E-06  2912   0.533E-03
  55 F= -.23392169E+03 E0= -.23392169E+03  d E =-.284714E-03
 ZBRENT: can't locate minimum, use default step
 trial-energy change:   -0.000285  1 .order   -0.000286   -0.000317   -0.000254
 step:   1.7654(harm=  2.2155)  dis= 0.00973  next Energy=  -233.922204 (dE=-0.796E-03)
 bond charge predicted
       N       E                     dE             d eps       ncg     rms          rms(c)
DAV:   1    -0.233920450417E+03    0.12434E-02   -0.34818E-01  3344   0.172E+00    0.139E-01
DAV:   2    -0.233922171898E+03   -0.17215E-02   -0.19250E-02  4224   0.397E-01    0.584E-02
DAV:   3    -0.233922175046E+03   -0.31484E-05   -0.67787E-04  5656   0.759E-02    0.443E-02
DAV:   4    -0.233922166723E+03    0.83233E-05   -0.60936E-05  5472   0.223E-02    0.215E-02
DAV:   5    -0.233922162126E+03    0.45964E-05   -0.25940E-05  4416   0.137E-02    0.746E-03
DAV:   6    -0.233922162429E+03   -0.30224E-06   -0.62181E-06  3504   0.634E-03
  56 F= -.23392216E+03 E0= -.23392216E+03  d E =-.754046E-03
 curvature:  -1.95 expect dE=-0.162E-02 dE for cont linesearch -0.187E-04
 trial: gam= 0.91386 g(F)=  0.828E-03 g(S)=  0.306E-05 ort = 0.114E-03 (trialstep = 0.441E+00)
 search vector abs. value=  0.217E-02
 bond charge predicted
       N       E                     dE             d eps       ncg     rms          rms(c)
DAV:   1    -0.233922311432E+03   -0.14931E-03   -0.64850E-02  3328   0.615E-01    0.570E-02
DAV:   2    -0.233922541620E+03   -0.23019E-03   -0.25459E-03  4368   0.145E-01    0.224E-02
DAV:   3    -0.233922542517E+03   -0.89631E-06   -0.10505E-04  5704   0.285E-02    0.169E-02
DAV:   4    -0.233922541506E+03    0.10110E-05   -0.94999E-06  4544   0.889E-03    0.730E-03
DAV:   5    -0.233922541074E+03    0.43169E-06   -0.27849E-06  2424   0.531E-03
  57 F= -.23392254E+03 E0= -.23392254E+03  d E =-.378645E-03
 ZBRENT: can't locate minimum, use default step
 trial-energy change:   -0.000379  1 .order   -0.000381   -0.000412   -0.000350
 step:   1.7620(harm=  2.9369)  dis= 0.00989  next Energy=  -233.923536 (dE=-0.137E-02)
 bond charge predicted
       N       E                     dE             d eps       ncg     rms          rms(c)
DAV:   1    -0.233921036660E+03    0.15048E-02   -0.58275E-01  3328   0.184E+00    0.166E-01
DAV:   2    -0.233923098780E+03   -0.20621E-02   -0.22769E-02  4360   0.432E-01    0.670E-02
DAV:   3    -0.233923110937E+03   -0.12157E-04   -0.96832E-04  5752   0.845E-02    0.508E-02
DAV:   4    -0.233923102719E+03    0.82183E-05   -0.86696E-05  5616   0.260E-02    0.224E-02
DAV:   5    -0.233923099167E+03    0.35522E-05   -0.34547E-05  4536   0.153E-02    0.721E-03
DAV:   6    -0.233923099951E+03   -0.78385E-06   -0.77107E-06  3696   0.681E-03
  58 F= -.23392310E+03 E0= -.23392310E+03  d E =-.937522E-03
 curvature:  -2.65 expect dE=-0.214E-02 dE for cont linesearch -0.220E-05
 trial: gam= 0.69887 g(F)=  0.799E-03 g(S)=  0.712E-05 ort =-0.424E-04 (trialstep = 0.705E+00)
 search vector abs. value=  0.181E-02
 bond charge predicted
       N       E                     dE             d eps       ncg     rms          rms(c)
DAV:   1    -0.233923025874E+03    0.73293E-04   -0.14155E-01  3320   0.831E-01    0.820E-02
DAV:   2    -0.233923474355E+03   -0.44848E-03   -0.49821E-03  4352   0.200E-01    0.348E-02
DAV:   3    -0.233923475093E+03   -0.73835E-06   -0.18921E-04  5792   0.380E-02    0.253E-02
DAV:   4    -0.233923472679E+03    0.24144E-05   -0.23163E-05  5088   0.128E-02    0.105E-02
DAV:   5    -0.233923473364E+03   -0.68544E-06   -0.60100E-06  3528   0.658E-03
  59 F= -.23392347E+03 E0= -.23392347E+03  d E =-.373414E-03
 trial-energy change:   -0.000373  1 .order   -0.000351   -0.000547   -0.000155
 step:   0.9001(harm=  0.9841)  dis= 0.00690  next Energy=  -233.923495 (dE=-0.395E-03)
 bond charge predicted
       N       E                     dE             d eps       ncg     rms          rms(c)
DAV:   1    -0.233923463021E+03    0.96581E-05   -0.10879E-02  3320   0.231E-01    0.237E-02
DAV:   2    -0.233923496771E+03   -0.33750E-04   -0.38112E-04  4416   0.551E-02    0.925E-03
DAV:   3    -0.233923496964E+03   -0.19344E-06   -0.15215E-05  5352   0.108E-02    0.635E-03
DAV:   4    -0.233923496935E+03    0.29195E-07   -0.11605E-06  2280   0.382E-03
  60 F= -.23392350E+03 E0= -.23392350E+03  d E =-.396984E-03
 curvature:  -1.04 expect dE=-0.518E-03 dE for cont linesearch -0.433E-06
 trial: gam= 0.06558 g(F)=  0.495E-03 g(S)=  0.190E-05 ort = 0.274E-04 (trialstep = 0.744E+00)
 search vector abs. value=  0.509E-03
 bond charge predicted
       N       E                     dE             d eps       ncg     rms          rms(c)
DAV:   1    -0.233923588214E+03   -0.91250E-04   -0.43115E-02  3328   0.611E-01    0.464E-02
DAV:   2    -0.233923779064E+03   -0.19085E-03   -0.20917E-03  4336   0.134E-01    0.195E-02
DAV:   3    -0.233923779183E+03   -0.11865E-06   -0.78310E-05  5608   0.260E-02    0.147E-02
DAV:   4    -0.233923778096E+03    0.10867E-05   -0.69589E-06  4104   0.799E-03    0.662E-03
DAV:   5    -0.233923777738E+03    0.35821E-06   -0.29495E-06  2640   0.528E-03
  61 F= -.23392378E+03 E0= -.23392378E+03  d E =-.280803E-03
 trial-energy change:   -0.000281  1 .order   -0.000281   -0.000371   -0.000191
 step:   1.5356(harm=  1.5356)  dis= 0.00240  next Energy=  -233.923880 (dE=-0.383E-03)
 bond charge predicted
       N       E                     dE             d eps       ncg     rms          rms(c)
DAV:   1    -0.233923662973E+03    0.11512E-03   -0.48868E-02  3328   0.650E-01    0.506E-02
DAV:   2    -0.233923878825E+03   -0.21585E-03   -0.23785E-03  4344   0.143E-01    0.204E-02
DAV:   3    -0.233923879162E+03   -0.33706E-06   -0.91496E-05  5616   0.279E-02    0.151E-02
DAV:   4    -0.233923878064E+03    0.10988E-05   -0.81866E-06  4280   0.866E-03    0.677E-03
DAV:   5    -0.233923877621E+03    0.44296E-06   -0.28202E-06  2552   0.552E-03
  62 F= -.23392388E+03 E0= -.23392388E+03  d E =-.380686E-03
 curvature:  -0.78 expect dE=-0.101E-03 dE for cont linesearch -0.703E-07
 trial: gam= 0.24437 g(F)=  0.127E-03 g(S)=  0.128E-05 ort = 0.676E-05 (trialstep = 0.902E+00)
 search vector abs. value=  0.162E-03
 bond charge predicted
       N       E                     dE             d eps       ncg     rms          rms(c)
DAV:   1    -0.233923776202E+03    0.10186E-03   -0.14661E-02  3480   0.494E-01    0.456E-02
DAV:   2    -0.233923959594E+03   -0.18339E-03   -0.20846E-03  4152   0.125E-01    0.196E-02
DAV:   3    -0.233923959749E+03   -0.15438E-06   -0.68508E-05  5496   0.249E-02    0.148E-02
DAV:   4    -0.233923957885E+03    0.18634E-05   -0.53821E-06  3760   0.686E-03    0.767E-03
DAV:   5    -0.233923956865E+03    0.10204E-05   -0.42676E-06  2848   0.554E-03    0.258E-03
DAV:   6    -0.233923956730E+03    0.13503E-06   -0.71702E-07  1960   0.363E-03
  63 F= -.23392396E+03 E0= -.23392396E+03  d E =-.791093E-04
 trial-energy change:   -0.000079  1 .order   -0.000078   -0.000117   -0.000038
 step:   1.3359(harm=  1.3359)  dis= 0.00099  next Energy=  -233.923965 (dE=-0.870E-04)
 bond charge predicted
       N       E                     dE             d eps       ncg     rms          rms(c)
DAV:   1    -0.233923925046E+03    0.31819E-04   -0.33939E-03  3480   0.238E-01    0.223E-02
DAV:   2    -0.233923968152E+03   -0.43106E-04   -0.48943E-04  4176   0.603E-02    0.966E-03
DAV:   3    -0.233923968097E+03    0.54868E-07   -0.15357E-05  4568   0.119E-02    0.702E-03
DAV:   4    -0.233923967522E+03    0.57523E-06   -0.12242E-06  2136   0.363E-03
  64 F= -.23392397E+03 E0= -.23392397E+03  d E =-.899009E-04
 curvature:  -0.83 expect dE=-0.701E-04 dE for cont linesearch -0.130E-06
 trial: gam= 0.63494 g(F)=  0.840E-04 g(S)=  0.273E-06 ort = 0.503E-05 (trialstep = 0.989E+00)
 search vector abs. value=  0.156E-03
 bond charge predicted
       N       E                     dE             d eps       ncg     rms          rms(c)
DAV:   1    -0.233923926013E+03    0.42084E-04   -0.17469E-02  3328   0.334E-01    0.548E-02
DAV:   2    -0.233924042786E+03   -0.11677E-03   -0.13162E-03  4408   0.118E-01    0.250E-02
DAV:   3    -0.233924040039E+03    0.27477E-05   -0.39295E-05  5760   0.201E-02    0.187E-02
DAV:   4    -0.233924038189E+03    0.18500E-05   -0.45349E-06  3544   0.645E-03    0.979E-03
DAV:   5    -0.233924037213E+03    0.97588E-06   -0.49138E-06  3032   0.526E-03
  65 F= -.23392404E+03 E0= -.23392404E+03  d E =-.696912E-04
 trial-energy change:   -0.000070  1 .order   -0.000070   -0.000087   -0.000053
 step:   2.5712(harm=  2.5712)  dis= 0.00233  next Energy=  -233.924080 (dE=-0.112E-03)
 bond charge predicted
       N       E                     dE             d eps       ncg     rms          rms(c)
DAV:   1    -0.233923817919E+03    0.22027E-03   -0.45225E-02  3328   0.537E-01    0.903E-02
DAV:   2    -0.233924109892E+03   -0.29197E-03   -0.32942E-03  4408   0.188E-01    0.405E-02
DAV:   3    -0.233924103179E+03    0.67134E-05   -0.10008E-04  5824   0.320E-02    0.296E-02
DAV:   4    -0.233924098869E+03    0.43103E-05   -0.13746E-05  5040   0.103E-02    0.147E-02
DAV:   5    -0.233924096875E+03    0.19941E-05   -0.55951E-06  3288   0.638E-03    0.441E-03
DAV:   6    -0.233924096708E+03    0.16644E-06   -0.14733E-06  2120   0.402E-03
  66 F= -.23392410E+03 E0= -.23392410E+03  d E =-.129187E-03
 curvature:  -2.29 expect dE=-0.170E-03 dE for cont linesearch -0.550E-05
 ZBRENT: increasing intervall
 opt :   5.7358  next Energy=  -233.924049 (dE=-0.812E-04)
 bond charge predicted
       N       E                     dE             d eps       ncg     rms          rms(c)
DAV:   1    -0.233922900808E+03    0.11961E-02   -0.18029E-01  3328   0.107E+00    0.180E-01
DAV:   2    -0.233924085445E+03   -0.11846E-02   -0.13374E-02  4400   0.382E-01    0.803E-02
DAV:   3    -0.233924057047E+03    0.28397E-04   -0.39630E-04  5800   0.645E-02    0.592E-02
DAV:   4    -0.233924039960E+03    0.17087E-04   -0.55505E-05  5448   0.204E-02    0.295E-02
DAV:   5    -0.233924033290E+03    0.66705E-05   -0.24978E-05  4800   0.122E-02    0.902E-03
DAV:   6    -0.233924033127E+03    0.16303E-06   -0.45303E-06  3016   0.514E-03
  67 F= -.23392403E+03 E0= -.23392403E+03  d E =-.656051E-04
 curvature:  20.01 expect dE= 0.795E-02 dE for cont linesearch  0.407E-03
 ZBRENT: bracketing found
 ZBRENT: interpolating
 opt :   3.3802  next Energy=  -233.924105 (dE=-0.137E-03)
 bond charge predicted
       N       E                     dE             d eps       ncg     rms          rms(c)
DAV:   1    -0.233923482084E+03    0.55121E-03   -0.10012E-01  3328   0.799E-01    0.131E-01
DAV:   2    -0.233924130700E+03   -0.64862E-03   -0.73097E-03  4400   0.283E-01    0.621E-02
DAV:   3    -0.233924113957E+03    0.16743E-04   -0.21272E-04  5792   0.473E-02    0.457E-02
DAV:   4    -0.233924104028E+03    0.99284E-05   -0.29963E-05  5176   0.149E-02    0.232E-02
DAV:   5    -0.233924101615E+03    0.24135E-05   -0.14001E-05  4584   0.912E-03    0.706E-03
DAV:   6    -0.233924102140E+03   -0.52483E-06   -0.19290E-06  2216   0.386E-03
  68 F= -.23392410E+03 E0= -.23392410E+03  d E =-.134618E-03
 curvature:  -0.39 expect dE=-0.485E-04 dE for cont linesearch -0.186E-07
 trial: gam= 1.56535 g(F)=  0.117E-03 g(S)=  0.905E-05 ort =-0.274E-05 (trialstep = 0.458E+00)
 search vector abs. value=  0.500E-03
 bond charge predicted
       N       E                     dE             d eps       ncg     rms          rms(c)
DAV:   1    -0.233924072188E+03    0.29427E-04   -0.12706E-02  3336   0.295E-01    0.410E-02
DAV:   2    -0.233924153060E+03   -0.80872E-04   -0.93782E-04  4376   0.965E-02    0.220E-02
DAV:   3    -0.233924151079E+03    0.19811E-05   -0.28254E-05  5688   0.170E-02    0.164E-02
DAV:   4    -0.233924149740E+03    0.13385E-05   -0.25761E-06  2664   0.590E-03    0.800E-03
DAV:   5    -0.233924149902E+03   -0.16110E-06   -0.57041E-06  3336   0.548E-03
  69 F= -.23392415E+03 E0= -.23392415E+03  d E =-.477618E-04
 trial-energy change:   -0.000048  1 .order   -0.000048   -0.000056   -0.000039
 step:   1.5548(harm=  1.5548)  dis= 0.00227  next Energy=  -233.924197 (dE=-0.946E-04)
 bond charge predicted
       N       E                     dE             d eps       ncg     rms          rms(c)
DAV:   1    -0.233923762961E+03    0.38678E-03   -0.72799E-02  3336   0.707E-01    0.101E-01
DAV:   2    -0.233924235241E+03   -0.47228E-03   -0.54985E-03  4392   0.232E-01    0.499E-02
DAV:   3    -0.233924223790E+03    0.11450E-04   -0.16671E-04  5728   0.409E-02    0.372E-02
DAV:   4    -0.233924217049E+03    0.67420E-05   -0.23662E-05  5288   0.144E-02    0.170E-02
DAV:   5    -0.233924216251E+03    0.79798E-06   -0.96800E-06  4168   0.799E-03
  70 F= -.23392422E+03 E0= -.23392422E+03  d E =-.114111E-03
 curvature:  -3.19 expect dE=-0.328E-03 dE for cont linesearch -0.554E-05
 ZBRENT: increasing intervall
 opt :   3.7483  next Energy=  -233.924157 (dE=-0.550E-04)
 bond charge predicted
       N       E                     dE             d eps       ncg     rms          rms(c)
DAV:   1    -0.233922334889E+03    0.18822E-02   -0.29074E-01  3336   0.141E+00    0.203E-01
DAV:   2    -0.233924235890E+03   -0.19010E-02   -0.22066E-02  4392   0.463E-01    0.985E-02
DAV:   3    -0.233924188545E+03    0.47345E-04   -0.66126E-04  5712   0.815E-02    0.736E-02
DAV:   4    -0.233924160206E+03    0.28339E-04   -0.96123E-05  5544   0.286E-02    0.334E-02
DAV:   5    -0.233924154538E+03    0.56680E-05   -0.40199E-05  5064   0.157E-02    0.935E-03
DAV:   6    -0.233924156288E+03   -0.17505E-05   -0.57136E-06  3304   0.570E-03    0.633E-03
DAV:   7    -0.233924157013E+03   -0.72465E-06   -0.76686E-07  1984   0.322E-03
  71 F= -.23392416E+03 E0= -.23392416E+03  d E =-.548729E-04
 curvature:  34.02 expect dE= 0.206E-01 dE for cont linesearch  0.544E-03
 ZBRENT: bracketing found
 ZBRENT: interpolating
 opt :   2.0987  next Energy=  -233.924224 (dE=-0.122E-03)
 bond charge predicted
       N       E                     dE             d eps       ncg     rms          rms(c)
DAV:   1    -0.233923198434E+03    0.95785E-03   -0.16429E-01  3336   0.106E+00    0.150E-01
DAV:   2    -0.233924280303E+03   -0.10819E-02   -0.12454E-02  4392   0.348E-01    0.758E-02
DAV:   3    -0.233924254046E+03    0.26257E-04   -0.36695E-04  5648   0.611E-02    0.570E-02
DAV:   4    -0.233924236069E+03    0.17977E-04   -0.53228E-05  5472   0.213E-02    0.263E-02
DAV:   5    -0.233924229224E+03    0.68445E-05   -0.23601E-05  4800   0.118E-02    0.737E-03
DAV:   6    -0.233924228547E+03    0.67717E-06   -0.30045E-06  2688   0.454E-03
  72 F= -.23392423E+03 E0= -.23392423E+03  d E =-.126407E-03
 curvature:  -0.50 expect dE=-0.849E-04 dE for cont linesearch -0.729E-07
 trial: gam= 1.31918 g(F)=  0.162E-03 g(S)=  0.716E-05 ort = 0.853E-05 (trialstep = 0.370E+00)
 search vector abs. value=  0.106E-02
 bond charge predicted
       N       E                     dE             d eps       ncg     rms          rms(c)
DAV:   1    -0.233924212786E+03    0.16438E-04   -0.19877E-02  3320   0.315E-01    0.387E-02
DAV:   2    -0.233924293567E+03   -0.80780E-04   -0.90108E-04  4688   0.938E-02    0.198E-02
DAV:   3    -0.233924292592E+03    0.97430E-06   -0.31641E-05  5600   0.162E-02    0.148E-02
DAV:   4    -0.233924291411E+03    0.11815E-05   -0.22979E-06  2376   0.548E-03    0.747E-03
DAV:   5    -0.233924291204E+03    0.20688E-06   -0.51193E-06  3224   0.540E-03
  73 F= -.23392429E+03 E0= -.23392429E+03  d E =-.626567E-04
 ZBRENT: can't locate minimum, use default step
 trial-energy change:   -0.000063  1 .order   -0.000064   -0.000067   -0.000061
 step:   1.4808(harm=  4.0342)  dis= 0.00394  next Energy=  -233.924593 (dE=-0.364E-03)
 bond charge predicted
       N       E                     dE             d eps       ncg     rms          rms(c)
DAV:   1    -0.233923734667E+03    0.55674E-03   -0.17892E-01  3320   0.944E-01    0.123E-01
DAV:   2    -0.233924466828E+03   -0.73216E-03   -0.82417E-03  4704   0.281E-01    0.535E-02
DAV:   3    -0.233924459633E+03    0.71956E-05   -0.30330E-04  5768   0.491E-02    0.397E-02
DAV:   4    -0.233924453129E+03    0.65038E-05   -0.33543E-05  5360   0.165E-02    0.172E-02
DAV:   5    -0.233924450895E+03    0.22335E-05   -0.14026E-05  4328   0.963E-03    0.433E-03
DAV:   6    -0.233924451150E+03   -0.25516E-06   -0.21077E-06  2312   0.424E-03
  74 F= -.23392445E+03 E0= -.23392445E+03  d E =-.222603E-03
 curvature:  -6.10 expect dE=-0.101E-02 dE for cont linesearch -0.628E-04
 ZBRENT: increasing intervall
 opt :   3.7020  next Energy=  -233.924552 (dE=-0.323E-03)
 bond charge predicted
       N       E                     dE             d eps       ncg     rms          rms(c)
DAV:   1    -0.233921619247E+03    0.28316E-02   -0.71482E-01  3320   0.189E+00    0.245E-01
DAV:   2    -0.233924572579E+03   -0.29533E-02   -0.33162E-02  4664   0.565E-01    0.108E-01
DAV:   3    -0.233924549131E+03    0.23447E-04   -0.12856E-03  5832   0.994E-02    0.800E-02
DAV:   4    -0.233924522169E+03    0.26963E-04   -0.13365E-04  5536   0.331E-02    0.351E-02
DAV:   5    -0.233924512624E+03    0.95447E-05   -0.60999E-05  4832   0.196E-02    0.850E-03
DAV:   6    -0.233924513775E+03   -0.11506E-05   -0.10482E-05  3640   0.789E-03    0.797E-03
DAV:   7    -0.233924513761E+03    0.13453E-07   -0.99545E-07  1992   0.349E-03
  75 F= -.23392451E+03 E0= -.23392451E+03  d E =-.285214E-03
 curvature:  -9.75 expect dE=-0.488E-02 dE for cont linesearch -0.216E-04
 ZBRENT: bracketing found
 ZBRENT: interpolating
 opt :   2.9986  next Energy=  -233.924531 (dE=-0.302E-03)
 bond charge predicted
       N       E                     dE             d eps       ncg     rms          rms(c)
DAV:   1    -0.233924245482E+03    0.26829E-03   -0.71588E-02  3320   0.597E-01    0.764E-02
DAV:   2    -0.233924535971E+03   -0.29049E-03   -0.32591E-03  4640   0.177E-01    0.351E-02
DAV:   3    -0.233924533287E+03    0.26838E-05   -0.12029E-04  5688   0.314E-02    0.260E-02
DAV:   4    -0.233924530388E+03    0.28992E-05   -0.12886E-05  4896   0.103E-02    0.115E-02
DAV:   5    -0.233924529387E+03    0.10014E-05   -0.51942E-06  3192   0.606E-03    0.271E-03
DAV:   6    -0.233924529488E+03   -0.10159E-06   -0.11075E-06  1992   0.373E-03
  76 F= -.23392453E+03 E0= -.23392453E+03  d E =-.300941E-03
 curvature:  -7.71 expect dE=-0.258E-02 dE for cont linesearch -0.281E-06
 trial: gam= 1.70067 g(F)=  0.330E-03 g(S)=  0.466E-05 ort =-0.622E-05 (trialstep = 0.281E+00)
 search vector abs. value=  0.338E-02
 bond charge predicted
       N       E                     dE             d eps       ncg     rms          rms(c)
DAV:   1    -0.233924480148E+03    0.49239E-04   -0.39342E-02  3296   0.413E-01    0.506E-02
DAV:   2    -0.233924625597E+03   -0.14545E-03   -0.15980E-03  4480   0.116E-01    0.242E-02
DAV:   3    -0.233924624627E+03    0.97061E-06   -0.54328E-05  5632   0.203E-02    0.177E-02
DAV:   4    -0.233924622956E+03    0.16710E-05   -0.57827E-06  3528   0.678E-03    0.788E-03
DAV:   5    -0.233924622465E+03    0.49111E-06   -0.30624E-06  2600   0.451E-03
  77 F= -.23392462E+03 E0= -.23392462E+03  d E =-.929763E-04
 ZBRENT: can't locate minimum, use default step
 trial-energy change:   -0.000093  1 .order   -0.000093   -0.000091   -0.000094
 step:   1.1241(harm=  1.1241)  dis= 0.00647  next Energy=  -233.924917 (dE=-0.388E-03)
 bond charge predicted
       N       E                     dE             d eps       ncg     rms          rms(c)
[...]
Note: The following floating-point exceptions are signalling: IEEE_INVALID_FLAG IEEE_UNDERFLOW_FLAG IEEE_DENORMAL
Note: The following floating-point exceptions are signalling: IEEE_INVALID_FLAG IEEE_UNDERFLOW_FLAG IEEE_DENORMAL
Note: The following floating-point exceptions are signalling: IEEE_INVALID_FLAG IEEE_UNDERFLOW_FLAG IEEE_DENORMAL
Note: The following floating-point exceptions are signalling: IEEE_INVALID_FLAG IEEE_UNDERFLOW_FLAG IEEE_DENORMAL
Note: The following floating-point exceptions are signalling: IEEE_INVALID_FLAG IEEE_UNDERFLOW_FLAG IEEE_DENORMAL
Note: The following floating-point exceptions are signalling: IEEE_INVALID_FLAG IEEE_UNDERFLOW_FLAG IEEE_DENORMAL
Note: The following floating-point exceptions are signalling: IEEE_INVALID_FLAG IEEE_UNDERFLOW_FLAG IEEE_DENORMAL
Note: The following floating-point exceptions are signalling: IEEE_INVALID_FLAG IEEE_UNDERFLOW_FLAG IEEE_DENORMAL
Note: The following floating-point exceptions are signalling: IEEE_INVALID_FLAG IEEE_UNDERFLOW_FLAG IEEE_DENORMAL
Note: The following floating-point exceptions are signalling: IEEE_INVALID_FLAG IEEE_UNDERFLOW_FLAG IEEE_DENORMAL
Note: The following floating-point exceptions are signalling: IEEE_INVALID_FLAG IEEE_UNDERFLOW_FLAG IEEE_DENORMAL
Note: The following floating-point exceptions are signalling: IEEE_INVALID_FLAG IEEE_UNDERFLOW_FLAG IEEE_DENORMAL
Note: The following floating-point exceptions are signalling: IEEE_INVALID_FLAG IEEE_UNDERFLOW_FLAG IEEE_DENORMAL
Note: The following floating-point exceptions are signalling: IEEE_INVALID_FLAG IEEE_UNDERFLOW_FLAG IEEE_DENORMAL
Note: The following floating-point exceptions are signalling: IEEE_INVALID_FLAG IEEE_UNDERFLOW_FLAG IEEE_DENORMAL
Note: The following floating-point exceptions are signalling: IEEE_INVALID_FLAG IEEE_UNDERFLOW_FLAG IEEE_DENORMAL
Note: The following floating-point exceptions are signalling: IEEE_INVALID_FLAG IEEE_UNDERFLOW_FLAG IEEE_DENORMAL
Note: The following floating-point exceptions are signalling: IEEE_INVALID_FLAG IEEE_UNDERFLOW_FLAG IEEE_DENORMAL
Note: The following floating-point exceptions are signalling: IEEE_INVALID_FLAG IEEE_UNDERFLOW_FLAG IEEE_DENORMAL
Note: The following floating-point exceptions are signalling: IEEE_INVALID_FLAG IEEE_UNDERFLOW_FLAG IEEE_DENORMAL
Note: The following floating-point exceptions are signalling: IEEE_INVALID_FLAG IEEE_UNDERFLOW_FLAG IEEE_DENORMAL
Note: The following floating-point exceptions are signalling: IEEE_INVALID_FLAG IEEE_UNDERFLOW_FLAG IEEE_DENORMAL
Note: The following floating-point exceptions are signalling: IEEE_INVALID_FLAG IEEE_UNDERFLOW_FLAG IEEE_DENORMAL
Note: The following floating-point exceptions are signalling: IEEE_INVALID_FLAG IEEE_UNDERFLOW_FLAG IEEE_DENORMAL
Note: The following floating-point exceptions are signalling: IEEE_INVALID_FLAG IEEE_UNDERFLOW_FLAG IEEE_DENORMAL
Note: The following floating-point exceptions are signalling: IEEE_INVALID_FLAG IEEE_UNDERFLOW_FLAG IEEE_DENORMAL
Note: The following floating-point exceptions are signalling: IEEE_INVALID_FLAG IEEE_UNDERFLOW_FLAG IEEE_DENORMAL
Note: The following floating-point exceptions are signalling: IEEE_INVALID_FLAG IEEE_UNDERFLOW_FLAG IEEE_DENORMAL
Note: The following floating-point exceptions are signalling: IEEE_INVALID_FLAG IEEE_UNDERFLOW_FLAG IEEE_DENORMAL
Note: The following floating-point exceptions are signalling: IEEE_INVALID_FLAG IEEE_UNDERFLOW_FLAG IEEE_DENORMAL
Note: The following floating-point exceptions are signalling: IEEE_INVALID_FLAG IEEE_UNDERFLOW_FLAG IEEE_DENORMAL
Note: The following floating-point exceptions are signalling: IEEE_INVALID_FLAG IEEE_UNDERFLOW_FLAG IEEE_DENORMAL
Note: The following floating-point exceptions are signalling: IEEE_INVALID_FLAG IEEE_UNDERFLOW_FLAG IEEE_DENORMAL
Note: The following floating-point exceptions are signalling: IEEE_INVALID_FLAG IEEE_UNDERFLOW_FLAG IEEE_DENORMAL
Note: The following floating-point exceptions are signalling: IEEE_INVALID_FLAG IEEE_UNDERFLOW_FLAG IEEE_DENORMAL
Note: The following floating-point exceptions are signalling: IEEE_INVALID_FLAG IEEE_UNDERFLOW_FLAG IEEE_DENORMAL
Note: The following floating-point exceptions are signalling: IEEE_INVALID_FLAG IEEE_UNDERFLOW_FLAG IEEE_DENORMAL
Note: The following floating-point exceptions are signalling: IEEE_INVALID_FLAG IEEE_UNDERFLOW_FLAG IEEE_DENORMAL
Note: The following floating-point exceptions are signalling: IEEE_INVALID_FLAG IEEE_UNDERFLOW_FLAG IEEE_DENORMAL
Note: The following floating-point exceptions are signalling: IEEE_INVALID_FLAG IEEE_UNDERFLOW_FLAG IEEE_DENORMAL
Note: The following floating-point exceptions are signalling: IEEE_INVALID_FLAG IEEE_UNDERFLOW_FLAG IEEE_DENORMAL
Note: The following floating-point exceptions are signalling: IEEE_INVALID_FLAG IEEE_UNDERFLOW_FLAG IEEE_DENORMAL
Note: The following floating-point exceptions are signalling: IEEE_INVALID_FLAG IEEE_UNDERFLOW_FLAG IEEE_DENORMAL
Note: The following floating-point exceptions are signalling: IEEE_INVALID_FLAG IEEE_UNDERFLOW_FLAG IEEE_DENORMAL
Note: The following floating-point exceptions are signalling: IEEE_INVALID_FLAG IEEE_UNDERFLOW_FLAG IEEE_DENORMAL
Note: The following floating-point exceptions are signalling: IEEE_INVALID_FLAG IEEE_UNDERFLOW_FLAG IEEE_DENORMAL
Note: The following floating-point exceptions are signalling: IEEE_INVALID_FLAG IEEE_UNDERFLOW_FLAG IEEE_DENORMAL
Note: The following floating-point exceptions are signalling: IEEE_INVALID_FLAG IEEE_UNDERFLOW_FLAG IEEE_DENORMAL
Note: The following floating-point exceptions are signalling: IEEE_INVALID_FLAG IEEE_UNDERFLOW_FLAG IEEE_DENORMAL
Note: The following floating-point exceptions are signalling: IEEE_INVALID_FLAG IEEE_UNDERFLOW_FLAG IEEE_DENORMAL
Note: The following floating-point exceptions are signalling: IEEE_INVALID_FLAG IEEE_UNDERFLOW_FLAG IEEE_DENORMAL
Note: The following floating-point exceptions are signalling: IEEE_INVALID_FLAG IEEE_UNDERFLOW_FLAG IEEE_DENORMAL
Note: The following floating-point exceptions are signalling: IEEE_INVALID_FLAG IEEE_UNDERFLOW_FLAG IEEE_DENORMAL
Note: The following floating-point exceptions are signalling: IEEE_INVALID_FLAG IEEE_UNDERFLOW_FLAG IEEE_DENORMAL
Note: The following floating-point exceptions are signalling: IEEE_INVALID_FLAG IEEE_UNDERFLOW_FLAG IEEE_DENORMAL
Note: The following floating-point exceptions are signalling: IEEE_INVALID_FLAG IEEE_UNDERFLOW_FLAG IEEE_DENORMAL
Note: The following floating-point exceptions are signalling: IEEE_INVALID_FLAG IEEE_UNDERFLOW_FLAG IEEE_DENORMAL
Note: The following floating-point exceptions are signalling: IEEE_INVALID_FLAG IEEE_UNDERFLOW_FLAG IEEE_DENORMAL
Note: The following floating-point exceptions are signalling: IEEE_INVALID_FLAG IEEE_UNDERFLOW_FLAG IEEE_DENORMAL
Note: The following floating-point exceptions are signalling: IEEE_INVALID_FLAG IEEE_UNDERFLOW_FLAG IEEE_DENORMAL
Note: The following floating-point exceptions are signalling: IEEE_INVALID_FLAG IEEE_UNDERFLOW_FLAG IEEE_DENORMAL
Note: The following floating-point exceptions are signalling: IEEE_INVALID_FLAG IEEE_UNDERFLOW_FLAG IEEE_DENORMAL
Note: The following floating-point exceptions are signalling: IEEE_INVALID_FLAG IEEE_UNDERFLOW_FLAG IEEE_DENORMAL
Note: The following floating-point exceptions are signalling: IEEE_INVALID_FLAG IEEE_UNDERFLOW_FLAG IEEE_DENORMAL
Note: The following floating-point exceptions are signalling: IEEE_INVALID_FLAG IEEE_UNDERFLOW_FLAG IEEE_DENORMAL
Note: The following floating-point exceptions are signalling: IEEE_INVALID_FLAG IEEE_UNDERFLOW_FLAG IEEE_DENORMAL
Note: The following floating-point exceptions are signalling: IEEE_INVALID_FLAG IEEE_UNDERFLOW_FLAG IEEE_DENORMAL
Note: The following floating-point exceptions are signalling: IEEE_INVALID_FLAG IEEE_UNDERFLOW_FLAG IEEE_DENORMAL
Note: The following floating-point exceptions are signalling: IEEE_INVALID_FLAG IEEE_UNDERFLOW_FLAG IEEE_DENORMAL
Note: The following floating-point exceptions are signalling: IEEE_INVALID_FLAG IEEE_UNDERFLOW_FLAG IEEE_DENORMAL
Note: The following floating-point exceptions are signalling: IEEE_INVALID_FLAG IEEE_UNDERFLOW_FLAG IEEE_DENORMAL
Note: The following floating-point exceptions are signalling: IEEE_INVALID_FLAG IEEE_UNDERFLOW_FLAG IEEE_DENORMAL
Note: The following floating-point exceptions are signalling: IEEE_INVALID_FLAG IEEE_UNDERFLOW_FLAG IEEE_DENORMAL
Note: The following floating-point exceptions are signalling: IEEE_INVALID_FLAG IEEE_UNDERFLOW_FLAG IEEE_DENORMAL
Note: The following floating-point exceptions are signalling: IEEE_INVALID_FLAG IEEE_UNDERFLOW_FLAG IEEE_DENORMAL
Note: The following floating-point exceptions are signalling: IEEE_INVALID_FLAG IEEE_UNDERFLOW_FLAG IEEE_DENORMAL
Note: The following floating-point exceptions are signalling: IEEE_INVALID_FLAG IEEE_UNDERFLOW_FLAG IEEE_DENORMAL
Note: The following floating-point exceptions are signalling: IEEE_INVALID_FLAG IEEE_UNDERFLOW_FLAG IEEE_DENORMAL
Note: The following floating-point exceptions are signalling: IEEE_INVALID_FLAG IEEE_UNDERFLOW_FLAG IEEE_DENORMAL
Note: The following floating-point exceptions are signalling: IEEE_INVALID_FLAG IEEE_UNDERFLOW_FLAG IEEE_DENORMAL
Note: The following floating-point exceptions are signalling: IEEE_INVALID_FLAG IEEE_UNDERFLOW_FLAG IEEE_DENORMAL
Note: The following floating-point exceptions are signalling: IEEE_INVALID_FLAG IEEE_UNDERFLOW_FLAG IEEE_DENORMAL
Note: The following floating-point exceptions are signalling: IEEE_INVALID_FLAG IEEE_UNDERFLOW_FLAG IEEE_DENORMAL
Note: The following floating-point exceptions are signalling: IEEE_INVALID_FLAG IEEE_UNDERFLOW_FLAG IEEE_DENORMAL
Note: The following floating-point exceptions are signalling: IEEE_INVALID_FLAG IEEE_UNDERFLOW_FLAG IEEE_DENORMAL
Note: The following floating-point exceptions are signalling: IEEE_INVALID_FLAG IEEE_UNDERFLOW_FLAG IEEE_DENORMAL
Note: The following floating-point exceptions are signalling: IEEE_INVALID_FLAG IEEE_UNDERFLOW_FLAG IEEE_DENORMAL
Note: The following floating-point exceptions are signalling: IEEE_INVALID_FLAG IEEE_UNDERFLOW_FLAG IEEE_DENORMAL
Note: The following floating-point exceptions are signalling: IEEE_INVALID_FLAG IEEE_UNDERFLOW_FLAG IEEE_DENORMAL
Note: The following floating-point exceptions are signalling: IEEE_INVALID_FLAG IEEE_UNDERFLOW_FLAG IEEE_DENORMAL
Note: The following floating-point exceptions are signalling: IEEE_INVALID_FLAG IEEE_UNDERFLOW_FLAG IEEE_DENORMAL
Note: The following floating-point exceptions are signalling: IEEE_INVALID_FLAG IEEE_UNDERFLOW_FLAG IEEE_DENORMAL
Note: The following floating-point exceptions are signalling: IEEE_INVALID_FLAG IEEE_UNDERFLOW_FLAG IEEE_DENORMAL
Note: The following floating-point exceptions are signalling: IEEE_INVALID_FLAG IEEE_UNDERFLOW_FLAG IEEE_DENORMAL
Note: The following floating-point exceptions are signalling: IEEE_INVALID_FLAG IEEE_UNDERFLOW_FLAG IEEE_DENORMAL
Note: The following floating-point exceptions are signalling: IEEE_INVALID_FLAG IEEE_UNDERFLOW_FLAG IEEE_DENORMAL
Note: The following floating-point exceptions are signalling: IEEE_INVALID_FLAG IEEE_UNDERFLOW_FLAG IEEE_DENORMAL
Note: The following floating-point exceptions are signalling: IEEE_INVALID_FLAG IEEE_UNDERFLOW_FLAG IEEE_DENORMAL
Note: The following floating-point exceptions are signalling: IEEE_INVALID_FLAG IEEE_UNDERFLOW_FLAG IEEE_DENORMAL
Note: The following floating-point exceptions are signalling: IEEE_INVALID_FLAG IEEE_UNDERFLOW_FLAG IEEE_DENORMAL
Note: The following floating-point exceptions are signalling: IEEE_INVALID_FLAG IEEE_UNDERFLOW_FLAG IEEE_DENORMAL
Note: The following floating-point exceptions are signalling: IEEE_INVALID_FLAG IEEE_UNDERFLOW_FLAG IEEE_DENORMAL
Note: The following floating-point exceptions are signalling: IEEE_INVALID_FLAG IEEE_UNDERFLOW_FLAG IEEE_DENORMAL
Note: The following floating-point exceptions are signalling: IEEE_INVALID_FLAG IEEE_UNDERFLOW_FLAG IEEE_DENORMAL
Note: The following floating-point exceptions are signalling: IEEE_INVALID_FLAG IEEE_UNDERFLOW_FLAG IEEE_DENORMAL
Note: The following floating-point exceptions are signalling: IEEE_INVALID_FLAG IEEE_UNDERFLOW_FLAG IEEE_DENORMAL
Note: The following floating-point exceptions are signalling: IEEE_INVALID_FLAG IEEE_UNDERFLOW_FLAG IEEE_DENORMAL
Note: The following floating-point exceptions are signalling: IEEE_INVALID_FLAG IEEE_UNDERFLOW_FLAG IEEE_DENORMAL
Note: The following floating-point exceptions are signalling: IEEE_INVALID_FLAG IEEE_UNDERFLOW_FLAG IEEE_DENORMAL
Note: The following floating-point exceptions are signalling: IEEE_INVALID_FLAG IEEE_UNDERFLOW_FLAG IEEE_DENORMAL
Note: The following floating-point exceptions are signalling: IEEE_INVALID_FLAG IEEE_UNDERFLOW_FLAG IEEE_DENORMAL
Note: The following floating-point exceptions are signalling: IEEE_INVALID_FLAG IEEE_UNDERFLOW_FLAG IEEE_DENORMAL
Note: The following floating-point exceptions are signalling: IEEE_INVALID_FLAG IEEE_UNDERFLOW_FLAG IEEE_DENORMAL
Note: The following floating-point exceptions are signalling: IEEE_INVALID_FLAG IEEE_UNDERFLOW_FLAG IEEE_DENORMAL
Note: The following floating-point exceptions are signalling: IEEE_INVALID_FLAG IEEE_UNDERFLOW_FLAG IEEE_DENORMAL
Note: The following floating-point exceptions are signalling: IEEE_INVALID_FLAG IEEE_UNDERFLOW_FLAG IEEE_DENORMAL
Note: The following floating-point exceptions are signalling: IEEE_INVALID_FLAG IEEE_UNDERFLOW_FLAG IEEE_DENORMAL
Note: The following floating-point exceptions are signalling: IEEE_INVALID_FLAG IEEE_UNDERFLOW_FLAG IEEE_DENORMAL
Note: The following floating-point exceptions are signalling: IEEE_INVALID_FLAG IEEE_UNDERFLOW_FLAG IEEE_DENORMAL
Note: The following floating-point exceptions are signalling: IEEE_INVALID_FLAG IEEE_UNDERFLOW_FLAG IEEE_DENORMAL
Note: The following floating-point exceptions are signalling: IEEE_INVALID_FLAG IEEE_UNDERFLOW_FLAG IEEE_DENORMAL
Note: The following floating-point exceptions are signalling: IEEE_INVALID_FLAG IEEE_UNDERFLOW_FLAG IEEE_DENORMAL
Note: The following floating-point exceptions are signalling: IEEE_INVALID_FLAG IEEE_UNDERFLOW_FLAG IEEE_DENORMAL
Note: The following floating-point exceptions are signalling: IEEE_INVALID_FLAG IEEE_UNDERFLOW_FLAG IEEE_DENORMAL
Note: The following floating-point exceptions are signalling: IEEE_INVALID_FLAG IEEE_UNDERFLOW_FLAG IEEE_DENORMAL
Note: The following floating-point exceptions are signalling: IEEE_INVALID_FLAG IEEE_UNDERFLOW_FLAG IEEE_DENORMAL
Note: The following floating-point exceptions are signalling: IEEE_INVALID_FLAG IEEE_UNDERFLOW_FLAG IEEE_DENORMAL
Note: The following floating-point exceptions are signalling: IEEE_INVALID_FLAG IEEE_UNDERFLOW_FLAG IEEE_DENORMAL
Note: The following floating-point exceptions are signalling: IEEE_INVALID_FLAG IEEE_UNDERFLOW_FLAG IEEE_DENORMAL
Note: The following floating-point exceptions are signalling: IEEE_INVALID_FLAG IEEE_UNDERFLOW_FLAG IEEE_DENORMAL
Note: The following floating-point exceptions are signalling: IEEE_INVALID_FLAG IEEE_UNDERFLOW_FLAG IEEE_DENORMAL
Note: The following floating-point exceptions are signalling: IEEE_INVALID_FLAG IEEE_UNDERFLOW_FLAG IEEE_DENORMAL
Note: The following floating-point exceptions are signalling: IEEE_INVALID_FLAG IEEE_UNDERFLOW_FLAG IEEE_DENORMAL
Note: The following floating-point exceptions are signalling: IEEE_INVALID_FLAG IEEE_UNDERFLOW_FLAG IEEE_DENORMAL
Note: The following floating-point exceptions are signalling: IEEE_INVALID_FLAG IEEE_UNDERFLOW_FLAG IEEE_DENORMAL
Note: The following floating-point exceptions are signalling: IEEE_INVALID_FLAG IEEE_UNDERFLOW_FLAG IEEE_DENORMAL
Note: The following floating-point exceptions are signalling: IEEE_INVALID_FLAG IEEE_UNDERFLOW_FLAG IEEE_DENORMAL
Note: The following floating-point exceptions are signalling: IEEE_INVALID_FLAG IEEE_UNDERFLOW_FLAG IEEE_DENORMAL
Note: The following floating-point exceptions are signalling: IEEE_INVALID_FLAG IEEE_UNDERFLOW_FLAG IEEE_DENORMAL
Note: The following floating-point exceptions are signalling: IEEE_INVALID_FLAG IEEE_UNDERFLOW_FLAG IEEE_DENORMAL
Note: The following floating-point exceptions are signalling: IEEE_INVALID_FLAG IEEE_UNDERFLOW_FLAG IEEE_DENORMAL
Note: The following floating-point exceptions are signalling: IEEE_INVALID_FLAG IEEE_UNDERFLOW_FLAG IEEE_DENORMAL
Note: The following floating-point exceptions are signalling: IEEE_INVALID_FLAG IEEE_UNDERFLOW_FLAG IEEE_DENORMAL
Note: The following floating-point exceptions are signalling: IEEE_INVALID_FLAG IEEE_UNDERFLOW_FLAG IEEE_DENORMAL
Note: The following floating-point exceptions are signalling: IEEE_INVALID_FLAG IEEE_UNDERFLOW_FLAG IEEE_DENORMAL
Note: The following floating-point exceptions are signalling: IEEE_INVALID_FLAG IEEE_UNDERFLOW_FLAG IEEE_DENORMAL
Note: The following floating-point exceptions are signalling: IEEE_INVALID_FLAG IEEE_UNDERFLOW_FLAG IEEE_DENORMAL
Note: The following floating-point exceptions are signalling: IEEE_INVALID_FLAG IEEE_UNDERFLOW_FLAG IEEE_DENORMAL
Note: The following floating-point exceptions are signalling: IEEE_INVALID_FLAG IEEE_UNDERFLOW_FLAG IEEE_DENORMAL
Note: The following floating-point exceptions are signalling: IEEE_INVALID_FLAG IEEE_UNDERFLOW_FLAG IEEE_DENORMAL
Note: The following floating-point exceptions are signalling: IEEE_INVALID_FLAG IEEE_UNDERFLOW_FLAG IEEE_DENORMAL
Note: The following floating-point exceptions are signalling: IEEE_INVALID_FLAG IEEE_UNDERFLOW_FLAG IEEE_DENORMAL
Note: The following floating-point exceptions are signalling: IEEE_INVALID_FLAG IEEE_UNDERFLOW_FLAG IEEE_DENORMAL
Note: The following floating-point exceptions are signalling: IEEE_INVALID_FLAG IEEE_UNDERFLOW_FLAG IEEE_DENORMAL
Note: The following floating-point exceptions are signalling: IEEE_INVALID_FLAG IEEE_UNDERFLOW_FLAG IEEE_DENORMAL
Note: The following floating-point exceptions are signalling: IEEE_INVALID_FLAG IEEE_UNDERFLOW_FLAG IEEE_DENORMAL
Note: The following floating-point exceptions are signalling: IEEE_INVALID_FLAG IEEE_UNDERFLOW_FLAG IEEE_DENORMAL
Note: The following floating-point exceptions are signalling: IEEE_INVALID_FLAG IEEE_UNDERFLOW_FLAG IEEE_DENORMAL
Note: The following floating-point exceptions are signalling: IEEE_INVALID_FLAG IEEE_UNDERFLOW_FLAG IEEE_DENORMAL
Note: The following floating-point exceptions are signalling: IEEE_INVALID_FLAG IEEE_UNDERFLOW_FLAG IEEE_DENORMAL
Note: The following floating-point exceptions are signalling: IEEE_INVALID_FLAG IEEE_UNDERFLOW_FLAG IEEE_DENORMAL
Note: The following floating-point exceptions are signalling: IEEE_INVALID_FLAG IEEE_UNDERFLOW_FLAG IEEE_DENORMAL
Note: The following floating-point exceptions are signalling: IEEE_INVALID_FLAG IEEE_UNDERFLOW_FLAG IEEE_DENORMAL
Note: The following floating-point exceptions are signalling: IEEE_INVALID_FLAG IEEE_UNDERFLOW_FLAG IEEE_DENORMAL
Note: The following floating-point exceptions are signalling: IEEE_INVALID_FLAG IEEE_UNDERFLOW_FLAG IEEE_DENORMAL
Note: The following floating-point exceptions are signalling: IEEE_INVALID_FLAG IEEE_UNDERFLOW_FLAG IEEE_DENORMAL
Note: The following floating-point exceptions are signalling: IEEE_INVALID_FLAG IEEE_UNDERFLOW_FLAG IEEE_DENORMAL
Note: The following floating-point exceptions are signalling: IEEE_INVALID_FLAG IEEE_UNDERFLOW_FLAG IEEE_DENORMAL
Note: The following floating-point exceptions are signalling: IEEE_INVALID_FLAG IEEE_UNDERFLOW_FLAG IEEE_DENORMAL
Note: The following floating-point exceptions are signalling: IEEE_INVALID_FLAG IEEE_UNDERFLOW_FLAG IEEE_DENORMAL
Note: The following floating-point exceptions are signalling: IEEE_INVALID_FLAG IEEE_UNDERFLOW_FLAG IEEE_DENORMAL
Note: The following floating-point exceptions are signalling: IEEE_INVALID_FLAG IEEE_UNDERFLOW_FLAG IEEE_DENORMAL
Note: The following floating-point exceptions are signalling: IEEE_INVALID_FLAG IEEE_UNDERFLOW_FLAG IEEE_DENORMAL
Note: The following floating-point exceptions are signalling: IEEE_INVALID_FLAG IEEE_UNDERFLOW_FLAG IEEE_DENORMAL
Note: The following floating-point exceptions are signalling: IEEE_INVALID_FLAG IEEE_UNDERFLOW_FLAG IEEE_DENORMAL
