LAMMPS (7 Aug 2019)
  using 1 OpenMP thread(s) per MPI task
# Input written to comply with LAMMPS 2017-08-11 00:00:00

# Atomic Configuration
units           metal
boundary        p p p
box tilt large
atom_style      charge
read_data       super.lmp
  triclinic box = (0 0 0) to (30.8409 30.9399 30.8613) with tilt (-0.0317434 -0.0977723 -0.0884718)
  4 by 5 by 4 MPI processor grid
  reading atoms ...
  1458 atoms
  read_data CPU = 0.015888 secs
group           lithium type 1
459 atoms in group lithium
group           scandium type 2
135 atoms in group scandium
group           chloride type 3
864 atoms in group chloride
variable        T1 equal 300

# Potential Setup
pair_style  buck/coul/long 12.0
pair_coeff * * 0.0 1.0 0.0
pair_coeff 1 1     360.530000  0.161000   0.000000 # Li Li
pair_coeff 1 3     421.040000  0.344000   0.000000 # Li Cl
pair_coeff 3 3    1227.200000  0.321000  14.530000 # Cl Cl
pair_coeff 2 3    8602.740000  0.261500   0.000000 # Sc Cl

kspace_style pppm 1e-05

# General Setup
timestep        0.001

# Thermodynamic Information Output
thermo_style custom step temp epair emol etotal press lx ly lz fmax cpu cpuremain
thermo          1000

# Intial Atom Velocity
velocity all create ${T1} 80800 dist gaussian rot yes
velocity all create 300 80800 dist gaussian rot yes

# Stage 0: npt_equilibriation
restart         0
fix             int all npt aniso 1.0 1.0 0.1 temp ${T1} ${T1} 0.5
fix             int all npt aniso 1.0 1.0 0.1 temp 300 ${T1} 0.5
fix             int all npt aniso 1.0 1.0 0.1 temp 300 300 0.5
run             50000
PPPM initialization ...
  using 12-bit tables for long-range coulomb (../kspace.cpp:323)
  G vector (1/distance) = 0.271552
  grid = 30 30 30
  stencil order = 5
  estimated absolute RMS force accuracy = 0.000111037
  estimated relative force accuracy = 7.71111e-06
  using double precision MKL FFT
  3d grid and FFT values/proc = 2548 384
Neighbor list info ...
  update every 1 steps, delay 10 steps, check yes
  max neighbors/atom: 2000, page size: 100000
  master list distance cutoff = 14
  ghost atom cutoff = 14
  binsize = 7, bins = 5 5 5
  1 neighbor lists, perpetual/occasional/extra = 1 0 0
  (1) pair buck/coul/long, perpetual
      attributes: half, newton on
      pair build: half/bin/newton/tri
      stencil: half/bin/3d/newton/tri
      bin: standard
Per MPI rank memory allocation (min/avg/max) = 3.45 | 3.524 | 3.713 Mbytes
Step Temp E_pair E_mol TotEng Press Lx Ly Lz Fmax CPU CPULeft 
       0          300   -9826.6628            0   -9770.1632    1264.5348    30.840886    30.939923    30.861307    2.6388356            0            0 
    1000    516.44584   -10074.891            0   -9977.6278    180.22144    33.525964    34.505263     33.80837    4.3333445     1.354604    66.375596 
    2000    381.89378   -10116.495            0   -10044.573    327.16976    33.281637    34.143525    33.798466    2.8396243     2.727633    65.463215 
    3000    306.55062   -10137.356            0   -10079.622    1161.0522    33.141417    33.932988    33.647418    1.9753121    4.1154928    64.476054 
    4000    277.75821   -10142.308            0   -10089.997    81.993932    33.272853    33.953957    33.455905    2.0924639     5.529043    63.583994 
    5000    308.23353   -10139.151            0   -10081.101   -238.21499    33.210899    33.954263    33.539136    2.2039948    6.9637089     62.67338 
    6000     309.8391   -10141.034            0   -10082.682   -768.79646    33.069706    34.093478    33.558249    2.7480885     8.278487    60.708904 
    7000    289.78356   -10146.371            0   -10091.796   -782.97013    33.387798    33.801098    33.233931    2.1595791     9.697217    59.568624 
    8000    297.26651   -10143.897            0   -10087.912   -867.76966    33.337971    34.086361    33.265826    2.4906931    11.095083    58.249191 
    9000    299.74465    -10141.43            0   -10084.979   -478.67489    33.104858    34.386751    33.410101    2.4525766    12.439752    56.669985 
   10000    299.28734    -10148.27            0   -10091.905   -147.47113    33.111623    34.263997    33.181044    2.2113958    13.879593    55.518375 
   11000    293.95904   -10147.548            0   -10092.186    166.55482    33.041875    34.223014    33.169535    2.1940149    15.280563    54.176544 
   12000    321.14598     -10147.6            0   -10087.118    409.76306    32.836684    34.252214    33.302599    2.6172029    16.616169    52.617871 
   13000    296.48964   -10146.464            0   -10090.625    628.63021    32.993502     34.21793    33.325706    2.2525973    17.981459    51.178001 
   14000    293.70385   -10149.032            0   -10093.718    1340.4502    33.093005    33.951762    33.200815    2.5101313    19.302272    49.634416 
   15000    297.98471   -10145.894            0   -10089.774    329.69688    33.125281    34.149598    33.263882    2.5777858     20.73556    48.382975 
   16000    298.66767   -10145.547            0   -10089.299    161.34714    32.946324     34.04064    33.273221    2.2345528     22.18395    47.140896 
   17000    298.08974   -10150.194            0   -10094.054   -285.92307    33.073501     33.92074    33.377366    2.6856504    23.685157    45.977071 
   18000    304.21431   -10150.051            0   -10092.758   -1427.2982    33.043669    34.267895    33.318205    2.5623265    25.172524    44.751155 
   19000    308.65654   -10147.562            0   -10089.432   -696.85469     33.11876    33.870716    33.448497    1.9325833    26.557809    43.331163 
   20000    303.75294   -10149.368            0   -10092.162   -1220.4652    33.025637     34.04541    33.415525    3.0452779    28.049281    42.073923 
   21000    293.97273   -10149.819            0   -10094.454   -1253.7606    33.219159    33.924744    33.345965    2.3344599     29.55112    40.808691 
   22000    296.72053   -10147.321            0   -10091.439   -555.61592    33.130487    34.003744    33.212246    3.0215944    31.057309    39.527485 
   23000    306.37304   -10149.805            0   -10092.105   -331.61656    33.042068    33.964781    33.317239    2.6941416    32.624404    38.298216 
   24000    297.37418   -10151.777            0   -10095.772    202.72753     32.89186    34.062764    33.394426     2.491266    33.986157    36.818338 
   25000    292.98702   -10147.856            0   -10092.677    488.17369    32.855774     34.18564    33.428829    2.5498704    35.363781    35.363782 
   26000    309.69515   -10149.409            0   -10091.084    641.29304    33.036691     33.80082    33.344892    2.7597904    36.811713    33.980044 
   27000    295.68904    -10152.03            0   -10096.343    787.13692    33.051026    33.838892    33.207805    2.3291527    38.157479     32.50452 
   28000    293.99645    -10150.23            0   -10094.861    856.12813    33.082228    33.963752    33.225975    2.5223029    39.485962    31.024685 
   29000    300.86827   -10148.399            0   -10091.736    514.55309    33.170989    33.635961    33.374067    2.5835367    40.841297    29.574733 
   30000    299.19888   -10151.765            0   -10095.416    280.22745    33.033661    34.003975    33.318065    2.0980145    42.221192    28.147462 
   31000    291.25701   -10151.501            0   -10096.648   -91.686478    32.986882    33.991811    33.354355    2.2609873     43.59491    26.719461 
   32000    305.13053   -10150.266            0     -10092.8   -666.45846    33.119701    33.981756    33.366115     1.893682    44.949651    25.284179 
   33000    292.77048   -10150.864            0   -10095.726   -448.24301    32.969589    34.035167    33.498949    2.8053161    46.339567    23.871899 
   34000    293.83163   -10153.908            0    -10098.57   -687.85904    33.193969    33.956003    33.444712    2.6859466     47.68068    22.437968 
   35000    298.92468   -10152.869            0   -10096.572   -612.63659    33.132633     34.04847     33.23245    2.2594914    49.027524    21.011796 
   36000    308.58948   -10155.676            0   -10097.559   -293.11551    33.029793    33.900594    33.294934    2.1333656    50.311984    19.565772 
   37000    290.87874   -10155.379            0   -10100.598     56.34144    32.979148     33.94939     33.28989    2.9336983    51.670865    18.154629 
   38000    301.39117   -10155.466            0   -10098.705    340.20908    32.944507    33.991669    33.207892    2.8478908    52.947251    16.720185 
   39000     308.4184   -10157.093            0   -10099.008    258.93941     33.04869    34.184582    33.078237     2.254163     54.34794    15.328906 
   40000    300.63539   -10158.572            0   -10101.952    585.64056    32.848037     34.17097    33.342014    1.9362239    55.731036    13.932759 
   41000    305.86137   -10157.473            0    -10099.87    697.08758    32.890262    34.227517    33.065888    2.1503914     57.05014    12.523202 
   42000    317.36319   -10154.878            0   -10095.108    388.34402    32.887121    34.253492    33.175642    2.3234412     58.37547    11.119137 
   43000    308.73177   -10157.041            0   -10098.897    835.81656    32.786626    34.050637    33.437994    2.0177538    59.770596    9.7300972 
   44000    302.67079   -10158.191            0   -10101.189    470.20143    32.799429    34.060247    33.269188    2.4553951    61.223327    8.3486356 
   45000    289.88954   -10155.489            0   -10100.894    66.984211    32.881034    34.050071    33.292446    2.3135878    62.735777    6.9706421 
   46000    307.86174   -10155.956            0   -10097.976   -384.25911    32.918116    34.112901    33.324647    2.3884068    64.242639    5.5863165 
   47000    290.26723   -10156.844            0   -10102.177   -387.98306    32.707063     34.37944    33.289666    2.2986273    65.725563    4.1952488 
   48000    297.11572   -10156.794            0   -10100.838   -879.02283    32.972353    34.112355    33.231551    2.1794948    67.094585    2.7956077 
   49000     300.9953   -10156.102            0   -10099.415   -438.20024    32.927474    34.274436    33.199418    2.9158309    68.547355    1.3989256 
   50000    286.05315   -10157.862            0   -10103.989   -222.52485    32.817902     34.22419    33.184438    2.0629839    69.996268            0 
Loop time of 69.9963 on 80 procs for 50000 steps with 1458 atoms

Performance: 61.718 ns/day, 0.389 hours/ns, 714.324 timesteps/s
99.1% CPU use with 80 MPI tasks x 1 OpenMP threads

MPI task timing breakdown:
Section |  min time  |  avg time  |  max time  |%varavg| %total
---------------------------------------------------------------
Pair    | 4.7773     | 5.9638     | 7.2029     |  17.7 |  8.52
Kspace  | 36.452     | 37.605     | 38.701     |   7.4 | 53.72
Neigh   | 0.14434    | 0.17515    | 0.2091     |   3.1 |  0.25
Comm    | 20.953     | 21.236     | 21.511     |   3.0 | 30.34
Output  | 0.0026379  | 0.0026746  | 0.0037308  |   0.2 |  0.00
Modify  | 3.568      | 4.1545     | 4.4239     |  15.2 |  5.94
Other   |            | 0.8587     |            |       |  1.23

Nlocal:    18.225 ave 25 max 11 min
Histogram: 1 3 10 9 6 24 11 12 1 3
Nghost:    1802.79 ave 1837 max 1768 min
Histogram: 4 7 5 10 10 14 14 9 4 3
Neighs:    4081.01 ave 5534 max 2470 min
Histogram: 1 4 8 10 6 22 13 11 2 3

Total # of neighbors = 326481
Ave neighs/atom = 223.924
Neighbor list builds = 1006
Dangerous builds = 7

# Stage 1: nvt_equilibriation
unfix int
restart         0
fix             int all nvt temp ${T1} ${T1} 0.5
fix             int all nvt temp 300 ${T1} 0.5
fix             int all nvt temp 300 300 0.5
run             50000
PPPM initialization ...
  using 12-bit tables for long-range coulomb (../kspace.cpp:323)
  G vector (1/distance) = 0.267333
  grid = 30 32 30
  stencil order = 5
  estimated absolute RMS force accuracy = 0.000131333
  estimated relative force accuracy = 9.12058e-06
  using double precision MKL FFT
  3d grid and FFT values/proc = 2744 448
Per MPI rank memory allocation (min/avg/max) = 3.689 | 3.699 | 3.712 Mbytes
Step Temp E_pair E_mol TotEng Press Lx Ly Lz Fmax CPU CPULeft 
   50000    286.05315   -10157.856            0   -10103.983   -220.54778    32.817902     34.22419    33.184438    2.0629623            0            0 
   51000    300.67354   -10156.697            0   -10100.071    785.38274    32.817902     34.22419    33.184438    2.8001082     1.402081    68.702016 
   52000    305.34232   -10158.141            0   -10100.635    938.05933    32.817902     34.22419    33.184438    2.4981762     2.836307    68.071369 
   53000    289.80806   -10158.553            0   -10103.973    158.39325    32.817902     34.22419    33.184438    2.1510558    4.1373301    64.818171 
   54000    293.81065   -10159.521            0   -10104.187    695.08319    32.817902     34.22419    33.184438     2.450069     5.401521    62.117502 
   55000    296.49811   -10156.036            0   -10100.196    595.55363    32.817902     34.22419    33.184438      2.39356    6.6974759    60.277283 
   56000    304.73403   -10159.079            0   -10101.688    -434.8952    32.817902     34.22419    33.184438    2.3091871    8.0216169    58.825198 
   57000    285.85117    -10158.07            0   -10104.235    1013.4449    32.817902     34.22419    33.184438    2.2914304      9.29094    57.072923 
   58000    315.50379   -10159.078            0   -10099.658    79.535907    32.817902     34.22419    33.184438    2.4211912    10.525367    55.258182 
   59000    299.71366   -10159.208            0   -10102.762    202.20983    32.817902     34.22419    33.184438     2.333894    11.776552    53.648741 
   60000    297.41777   -10159.452            0   -10103.439    883.32258    32.817902     34.22419    33.184438    2.1722128    13.014053    52.056216 
   61000    313.75427   -10157.371            0   -10098.281    603.40872    32.817902     34.22419    33.184438    2.5616242    14.286632    50.652608 
   62000    296.90186   -10158.391            0   -10102.475   -454.55701    32.817902     34.22419    33.184438    2.5610923    15.603101    49.409823 
   63000    298.95626   -10160.939            0   -10104.636    448.22163    32.817902     34.22419    33.184438    2.4930314    16.941489    48.218087 
   64000    312.59594   -10159.852            0    -10100.98    143.08671    32.817902     34.22419    33.184438    2.4814111    18.222253    46.857225 
   65000     302.9389   -10160.019            0   -10102.966   -426.94505    32.817902     34.22419    33.184438    2.8091653    19.453408    45.391288 
   66000     299.1441   -10160.531            0   -10104.192    334.77401    32.817902     34.22419    33.184438    2.0358841    20.698552    43.984425 
   67000    303.44313   -10159.371            0   -10102.223    162.42242    32.817902     34.22419    33.184438    2.0685252    21.973276    42.654008 
   68000    311.85047   -10160.019            0   -10101.288   -676.12855    32.817902     34.22419    33.184438    2.6618254    23.233589     41.30416 
   69000    294.53264   -10160.798            0   -10105.328    54.114091    32.817902     34.22419    33.184438    2.5416127    24.494646     39.96495 
   70000    306.21371   -10160.544            0   -10102.874    -323.9012    32.817902     34.22419    33.184438    2.2743241    25.755501    38.633253 
   71000      303.632   -10158.989            0   -10101.806   -123.57814    32.817902     34.22419    33.184438    2.2183575    27.046879    37.350453 
   72000    294.67472   -10159.701            0   -10104.204   -225.53483    32.817902     34.22419    33.184438    1.9471362    28.302728    36.021655 
   73000     298.9488   -10161.674            0   -10105.372   -877.08363    32.817902     34.22419    33.184438    2.2093655    29.618284    34.769291 
   74000     293.1175    -10161.64            0   -10106.436   -352.51505    32.817902     34.22419    33.184438    2.0956174    30.982953    33.564867 
   75000    307.54938   -10160.698            0   -10102.777   -294.41469    32.817902     34.22419    33.184438    2.6789946    32.304833    32.304834 
   76000    294.39538   -10161.249            0   -10105.804    1289.1841    32.817902     34.22419    33.184438    2.3225794    33.609597    31.024244 
   77000    291.36745   -10165.456            0   -10110.583    386.10961    32.817902     34.22419    33.184438     2.884352     34.97415    29.792795 
   78000    293.82895   -10162.796            0   -10107.459   -411.95486    32.817902     34.22419    33.184438    2.5181117    36.206999    28.448357 
   79000    297.95102   -10159.788            0   -10103.675   -233.45893    32.817902     34.22419    33.184438    2.7668549    37.493867    27.150731 
   80000    305.06191   -10161.706            0   -10104.253   -638.74838    32.817902     34.22419    33.184438    2.5164776    38.833126    25.888751 
   81000    299.29445    -10163.47            0   -10107.103    914.51537    32.817902     34.22419    33.184438    2.1501259    40.151954    24.609263 
   82000    305.79192   -10162.399            0   -10104.808    565.79271    32.817902     34.22419    33.184438       2.5377     41.50231     23.34505 
   83000    298.52791   -10161.297            0   -10105.075    626.63737    32.817902     34.22419    33.184438    3.3022551    42.901905    22.100982 
   84000    292.40289    -10162.73            0   -10107.661    926.28005    32.817902     34.22419    33.184438    2.4109425    44.104426    20.755025 
   85000    291.68413    -10163.05            0   -10108.117   -657.11808    32.817902     34.22419    33.184438    2.3795236    45.326096     19.42547 
   86000     298.3924   -10161.616            0   -10105.419    -578.7408    32.817902     34.22419    33.184438    2.5801667    46.579575     18.11428 
   87000    306.73872   -10163.112            0   -10105.344    -75.12609    32.817902     34.22419    33.184438    2.4098009    47.802541    16.795488 
   88000    292.47581   -10163.909            0   -10108.826   -887.32804    32.817902     34.22419    33.184438    2.0264805    49.069966    15.495779 
   89000     301.7664   -10161.401            0   -10104.569   -647.83847    32.817902     34.22419    33.184438    2.1428074    50.362881    14.204915 
   90000    296.50191   -10162.165            0   -10106.324    154.14361    32.817902     34.22419    33.184438    2.4471559    51.658157     12.91454 
   91000    307.53335   -10164.987            0   -10107.069    481.88953    32.817902     34.22419    33.184438    2.8377579    52.923938     11.61745 
   92000    320.72884   -10163.562            0   -10103.159    197.77305    32.817902     34.22419    33.184438    1.9906199    54.197385    10.323312 
   93000    297.10581   -10162.938            0   -10106.984    157.98251    32.817902     34.22419    33.184438    2.0022474    55.483851     9.032255 
   94000    301.94364   -10163.271            0   -10106.405   -829.64479    32.817902     34.22419    33.184438    1.9489249    56.740694    7.7373675 
   95000    310.46928   -10161.202            0    -10102.73    136.36191    32.817902     34.22419    33.184438    2.4091213    57.902719    6.4336356 
   96000    308.03664   -10163.757            0   -10105.744    248.25433    32.817902     34.22419    33.184438    2.6289502    59.175496    5.1456954 
   97000    303.93236   -10164.084            0   -10106.844    112.53594    32.817902     34.22419    33.184438    2.2588755    60.420685    3.8566395 
   98000    288.08625   -10164.762            0   -10110.506    -481.3361    32.817902     34.22419    33.184438    2.2657137    61.650161    2.5687567 
   99000    306.49937   -10164.047            0   -10106.323   -243.89027    32.817902     34.22419    33.184438    2.3343873    62.891277    1.2834955 
  100000    304.88104   -10163.928            0    -10106.51   -429.98001    32.817902     34.22419    33.184438    2.2166954    64.154886            0 
Loop time of 64.1549 on 80 procs for 50000 steps with 1458 atoms

Performance: 67.337 ns/day, 0.356 hours/ns, 779.364 timesteps/s
99.3% CPU use with 80 MPI tasks x 1 OpenMP threads

MPI task timing breakdown:
Section |  min time  |  avg time  |  max time  |%varavg| %total
---------------------------------------------------------------
Pair    | 4.7592     | 6.2004     | 7.8468     |  27.2 |  9.66
Kspace  | 28.675     | 30.997     | 32.731     |  14.7 | 48.32
Neigh   | 0.11474    | 0.14186    | 0.17002    |   3.2 |  0.22
Comm    | 25.392     | 26.097     | 27.308     |   8.8 | 40.68
Output  | 0.002497   | 0.0025149  | 0.0031757  |   0.1 |  0.00
Modify  | 0.4146     | 0.4498     | 0.49251    |   2.4 |  0.70
Other   |            | 0.2663     |            |       |  0.42

Nlocal:    18.225 ave 23 max 14 min
Histogram: 4 6 6 16 12 12 10 9 4 1
Nghost:    1796.96 ave 1833 max 1769 min
Histogram: 5 7 14 10 11 13 9 5 5 1
Neighs:    4082.78 ave 5195 max 3093 min
Histogram: 4 6 6 16 12 12 9 10 3 2

Total # of neighbors = 326622
Ave neighs/atom = 224.021
Neighbor list builds = 810
Dangerous builds = 0

# Stage 2: main_nvt_simulation
unfix int
compute         lithiummsd lithium msd com yes
compute         scandiummsd scandium msd com yes
compute         chloridemsd chloride msd com yes
fix             lithiummsdt lithium ave/time 1 1 1000 c_lithiummsd[4] file super_cu_msd_li.txt
fix             scandiummymsdt scandium ave/time 1 1 1000 c_scandiummsd[4] file super_cu_msd_sc.txt
fix             chloridemymsdt chloride ave/time 1 1 1000 c_chloridemsd[4] file super_cu_msd_cl.txt
dump            atom_info all custom 1000 super_cu.lammpstrj element x y z q id type vx vy vz
dump_modify     atom_info append yes
dump_modify     atom_info sort id
dump_modify     atom_info element Li Sc Cl
restart         0
fix             int all nvt temp ${T1} ${T1} 0.5
fix             int all nvt temp 300 ${T1} 0.5
fix             int all nvt temp 300 300 0.5
run             2000000
PPPM initialization ...
  using 12-bit tables for long-range coulomb (../kspace.cpp:323)
  G vector (1/distance) = 0.267333
  grid = 30 32 30
  stencil order = 5
  estimated absolute RMS force accuracy = 0.000131333
  estimated relative force accuracy = 9.12058e-06
  using double precision MKL FFT
  3d grid and FFT values/proc = 2744 448
Per MPI rank memory allocation (min/avg/max) = 6.084 | 6.094 | 6.107 Mbytes
Step Temp E_pair E_mol TotEng Press Lx Ly Lz Fmax CPU CPULeft 
  100000    304.88104   -10163.928            0    -10106.51   -429.98001    32.817902     34.22419    33.184438    2.2166954            0            0 
  101000    289.07879   -10163.397            0   -10108.954   -410.33151    32.817902     34.22419    33.184438    2.5678686     1.214397    2427.5814 
  102000    295.43563   -10163.971            0   -10108.331    -237.0972    32.817902     34.22419    33.184438    2.7104922    2.4190989    2416.6809 
  103000     303.7449   -10163.164            0    -10105.96    563.22059    32.817902     34.22419    33.184438    2.4807959     3.649193    2429.1462 
  104000    293.58258   -10163.743            0   -10108.452    861.14277    32.817902     34.22419    33.184438    2.1198938    4.8909049    2440.5615 
  105000     290.0008   -10163.057            0    -10108.44   -125.85555    32.817902     34.22419    33.184438    2.1930965    6.1586828    2457.3149 
  106000    308.10597   -10163.433            0   -10105.407    136.86774    32.817902     34.22419    33.184438    2.2101057    7.4816279    2486.3944 
  107000    296.54469   -10164.291            0   -10108.443    906.10261    32.817902     34.22419    33.184438     1.948592    8.7487628    2490.8981 
  108000    303.53836   -10166.982            0   -10109.816    451.65449    32.817902     34.22419    33.184438    2.0793971    10.108602    2517.0421 
  109000    301.50568   -10162.808            0   -10106.025   -774.07053    32.817902     34.22419    33.184438    2.2428816     11.41389    2525.0063 
  110000    296.64471   -10162.573            0   -10106.706   -268.14991    32.817902     34.22419    33.184438    2.2069401    12.718009     2530.884 
  111000    294.62316   -10165.665            0   -10110.178    519.55902    32.817902     34.22419    33.184438    2.8895319    13.975736    2527.0673 
  112000    306.15911   -10165.294            0   -10107.634   -234.23183    32.817902     34.22419    33.184438    2.3837439    15.337297     2540.879 
  113000    296.20574   -10162.806            0   -10107.021     524.1604    32.817902     34.22419    33.184438    2.7097105    16.668102    2547.6554 
  114000    290.09885   -10165.664            0   -10111.029    761.66966    32.817902     34.22419    33.184438    1.8780805    17.978957    2550.4436 
  115000    294.68769   -10163.071            0   -10107.572    798.61893    32.817902     34.22419    33.184438    2.3387061    19.282891    2551.7692 
  116000    305.07818   -10164.445            0   -10106.989   -1588.8173    32.817902     34.22419    33.184438    2.1378476    20.581932    2552.1597 
  117000    296.77262   -10166.886            0   -10110.994   -213.18806    32.817902     34.22419    33.184438    2.3135141    21.782518    2540.8668 
  118000    305.62591   -10166.367            0   -10108.808   -560.79504    32.817902     34.22419    33.184438    2.3204614    23.034177    2536.3189 
  119000    315.23895   -10166.542            0   -10107.172   -34.609088    32.817902     34.22419    33.184438     2.438502    24.225764    2525.8548 
  120000    303.96876   -10163.584            0   -10106.337   -218.54016    32.817902     34.22419    33.184438     1.988756    25.439119    2518.4729 
  121000    289.30108    -10164.74            0   -10110.256    345.34347    32.817902     34.22419    33.184438    2.1145386    26.690988     2515.308 
  122000    303.38664   -10164.206            0   -10107.068    217.94173    32.817902     34.22419    33.184438    2.4087229    27.901585    2508.6062 
  123000    300.83249   -10163.209            0   -10106.553   -174.32022    32.817902     34.22419    33.184438     2.332799    29.100031    2501.3375 
  124000    296.63972   -10164.855            0   -10108.989   -970.84885    32.817902     34.22419    33.184438    2.3728964    30.416736    2504.3113 
  125000    302.27118   -10166.303            0   -10109.376    364.98581    32.817902     34.22419    33.184438    2.6131462    31.740397    2507.4914 
  126000    310.68733   -10165.989            0   -10107.477   -403.38034    32.817902     34.22419    33.184438    2.2310316     32.94098    2500.9806 
  127000    304.16801   -10166.573            0   -10109.288   -198.76141    32.817902     34.22419    33.184438    2.0648056     34.17167    2497.0631 
  128000    294.08257   -10166.049            0   -10110.663   -74.532445    32.817902     34.22419    33.184438    2.0653494    35.404543    2493.4914 
  129000    303.59392   -10163.748            0   -10106.572   -635.64058    32.817902     34.22419    33.184438    2.2818366    36.622779    2489.0862 
  130000    297.50713   -10165.544            0   -10109.514   -1235.2568    32.817902     34.22419    33.184438    2.2282663    37.834701    2484.4788 
  131000    311.02154   -10167.498            0   -10108.922    -1025.552    32.817902     34.22419    33.184438    2.8374257    39.047859    2480.1689 
  132000    303.29568   -10163.747            0   -10106.627   -654.04682    32.817902     34.22419    33.184438    2.2994285    40.278236    2477.1116 
  133000    299.20097    -10166.34            0    -10109.99   -475.14174    32.817902     34.22419    33.184438    2.0163899    41.508684    2474.1692 
  134000    303.72338   -10166.575            0   -10109.375   -1466.9223    32.817902     34.22419    33.184438    2.1345182    42.714702    2469.9149 
  135000    303.21988   -10165.543            0   -10108.437   -541.84877    32.817902     34.22419    33.184438     2.382508     43.98823    2469.6249 
  136000     303.3792   -10166.694            0   -10109.558   -809.96301    32.817902     34.22419    33.184438    2.0928758    45.204276    2466.1444 
  137000    292.29971   -10166.829            0   -10111.779   -724.93115    32.817902     34.22419    33.184438    2.3192854    46.459958    2464.8891 
  138000    303.55635   -10164.503            0   -10107.334   -1077.3655    32.817902     34.22419    33.184438    2.2644342    47.737207    2464.7474 
  139000    297.85703   -10165.748            0   -10109.652    -1092.922    32.817902     34.22419    33.184438    2.3493739    49.052822    2466.4765 
  140000    289.34414   -10165.915            0   -10111.422   -1100.1362    32.817902     34.22419    33.184438    2.2521238    50.334967    2466.4134 
  141000    302.93737   -10166.559            0   -10109.506   -53.370754    32.817902     34.22419    33.184438    2.4307618    51.662335    2468.4516 
  142000    297.19075   -10164.713            0   -10108.742   -225.19038    32.817902     34.22419    33.184438     2.910502    52.947075    2468.3423 
  143000    296.55696   -10166.367            0   -10110.516   -606.49722    32.817902     34.22419    33.184438    2.5186652    54.259518     2469.439 
  144000    296.90754   -10166.414            0   -10110.497   -52.727993    32.817902     34.22419    33.184438    2.6797674    55.570536     2470.363 
  145000    302.91349   -10164.357            0   -10107.309   -195.45643    32.817902     34.22419    33.184438    2.3789945    56.881143    2471.1697 
  146000     300.1363   -10167.119            0   -10110.594    572.98743    32.817902     34.22419    33.184438    2.1304669    58.287879    2475.9677 
  147000    299.29529   -10166.597            0    -10110.23     61.11907    32.817902     34.22419    33.184438    2.1306954    59.528383    2473.5943 
  148000    304.46419   -10163.878            0   -10106.537    552.24991    32.817902     34.22419    33.184438    2.8839761    60.739182    2470.0601 
  149000    293.89588   -10166.168            0   -10110.818    1096.4653    32.817902     34.22419    33.184438    2.2643305    62.023643    2469.5537 
  150000    300.42082   -10166.725            0   -10110.146   -1240.0998    32.817902     34.22419    33.184438    2.4871359    63.246065    2466.5966 
  151000    304.30532    -10164.82            0    -10107.51    153.22626    32.817902     34.22419    33.184438    1.8728293    64.455637    2463.2164 
  152000     287.9874   -10166.688            0   -10112.451   -227.89071    32.817902     34.22419    33.184438    2.5982705    65.709171    2461.5666 
  153000    303.12445   -10167.053            0   -10109.965    101.68728    32.817902     34.22419    33.184438    2.1224358    66.920084    2458.3661 
  154000    305.04541   -10166.356            0   -10108.906    699.31909    32.817902     34.22419    33.184438    2.1815421    68.163733     2456.419 
  155000    293.39512   -10168.506            0    -10113.25    179.29489    32.817902     34.22419    33.184438    2.3641321    69.365913     2453.031 
  156000    292.05492   -10164.828            0   -10109.824   -1168.6368    32.817902     34.22419    33.184438    2.1928125    70.596427    2450.7046 
  157000    301.67706   -10166.454            0   -10109.638    204.46774    32.817902     34.22419    33.184438     2.780707    71.776238    2446.6883 
  158000    294.35301    -10169.32            0   -10113.884    463.86716    32.817902     34.22419    33.184438    2.6072757    72.984451    2443.7208 
  159000    302.82643   -10167.684            0   -10110.652   -238.82891    32.817902     34.22419    33.184438    2.2435103    74.248762    2442.6585 
  160000    296.17229   -10165.746            0   -10109.967     -3.76533    32.817902     34.22419    33.184438    2.3598632    75.513199    2441.5934 
  161000    295.05094   -10170.815            0   -10115.247    73.621438    32.817902     34.22419    33.184438    2.3619582     76.73028    2439.0166 
  162000    303.90522   -10169.161            0   -10111.926   -11.774826    32.817902     34.22419    33.184438    2.9775294    78.004211    2438.2607 
  163000    298.90756   -10166.056            0   -10109.762   -1337.7623    32.817902     34.22419    33.184438    2.1672926    79.202665    2435.1677 
  164000    289.32356   -10167.043            0   -10112.554   -688.16033    32.817902     34.22419    33.184438    1.9745478     80.42287    2432.7918 
  165000    293.66631   -10168.128            0   -10112.822   -516.03355    32.817902     34.22419    33.184438    2.5564611    81.626396     2429.955 
  166000    313.91449   -10169.113            0   -10109.993   -316.24019    32.817902     34.22419    33.184438    2.3096543    82.896108    2429.1072 
  167000    292.13764   -10166.457            0   -10111.438    495.72263    32.817902     34.22419    33.184438    2.5161499    84.086501    2425.9583 
  168000    292.24032   -10169.258            0    -10114.22   -607.53087    32.817902     34.22419    33.184438    2.2342527    85.327068    2424.2926 
  169000    301.99946   -10167.094            0   -10110.218   -119.22875    32.817902     34.22419    33.184438    3.0423688     86.57891    2422.9547 
  170000    293.08404   -10164.736            0   -10109.539    844.21046    32.817902     34.22419    33.184438    2.8751009    87.835643    2421.7542 
  171000    291.00552   -10168.181            0   -10113.375   -501.77585    32.817902     34.22419    33.184438    2.0697437    89.184849    2423.0644 
  172000    305.79187   -10167.686            0   -10110.095   -648.40752    32.817902     34.22419    33.184438     2.305208    90.437417    2421.7131 
  173000    302.66597    -10167.58            0   -10110.578   -391.37119    32.817902     34.22419    33.184438    2.3753229    91.752769    2422.0217 
  174000      306.091   -10171.123            0   -10113.477   -374.02747    32.817902     34.22419    33.184438    2.1512923    93.020817    2421.0553 
  175000    306.63733   -10168.924            0   -10111.175   -878.29159    32.817902     34.22419    33.184438    2.2753948    94.300049     2420.368 
  176000    298.12854   -10165.961            0   -10109.813   -539.24618    32.817902     34.22419    33.184438    3.1277242    95.595526    2420.0762 
  177000    298.69999   -10169.661            0   -10113.407   -515.27144    32.817902     34.22419    33.184438    2.5277233    96.937007    2420.9074 
  178000    304.94722   -10169.326            0   -10111.895    -854.5928    32.817902     34.22419    33.184438    2.3415655    98.221806     2420.286 
  179000     306.9649   -10169.085            0   -10111.273   -410.90514    32.817902     34.22419    33.184438    2.1672372    99.490771    2419.2629 
  180000    295.99237   -10168.855            0    -10113.11   -1605.7512    32.817902     34.22419    33.184438    2.2816527    100.68807    2416.5138 
  181000    303.58114   -10167.302            0   -10110.128   -55.825364    32.817902     34.22419    33.184438    2.5877655    101.88577    2413.8123 
  182000    304.81424   -10168.043            0   -10110.636   -930.93631    32.817902     34.22419    33.184438    2.5387762      103.084    2411.1599 
  183000    295.01445   -10168.981            0    -10113.42   -997.73316    32.817902     34.22419    33.184438    2.3222767    104.29013     2408.725 
  184000    301.61641   -10167.143            0   -10110.339    -962.2811    32.817902     34.22419    33.184438    2.2192669     105.5138    2406.7197 
  185000      296.224   -10168.594            0   -10112.805   -947.49871    32.817902     34.22419    33.184438    2.1016952    106.68643    2403.5826 
  186000    296.32829    -10168.55            0   -10112.742    -723.8895    32.817902     34.22419    33.184438    2.5324958    107.91592    2401.7567 
  187000     309.0509   -10168.507            0   -10110.303   -853.81372    32.817902     34.22419    33.184438    1.9881284    109.08651    2398.6494 
  188000    297.84612   -10168.762            0   -10112.668   -1614.7716    32.817902     34.22419    33.184438    2.1902425    110.27585    2395.9934 
  189000    292.12122   -10169.562            0   -10114.546   -538.53771    32.817902     34.22419    33.184438    2.0709939    111.48471    2393.7897 
  190000    294.50039   -10166.878            0   -10111.414    -430.0659    32.817902     34.22419    33.184438    2.5584586    112.68301     2391.384 
  191000    302.92853   -10167.819            0   -10110.767   -1149.0428    32.817902     34.22419    33.184438    2.1850121     113.9142    2389.6946 
  192000    297.54795   -10168.083            0   -10112.046   -565.69601    32.817902     34.22419    33.184438    2.4004862    115.08505    2386.7638 
  193000     297.5334   -10167.881            0   -10111.846   -1563.5678    32.817902     34.22419    33.184438    2.5127622    116.27665    2384.2964 
  194000    298.49751   -10164.857            0    -10108.64   -1656.9445    32.817902     34.22419    33.184438    2.1803952    117.50056    2382.5114 
  195000    292.72811   -10168.111            0   -10112.981   -1352.9499    32.817902     34.22419    33.184438    2.2629562     118.7009    2380.2654 
  196000    294.59448   -10166.587            0   -10111.105   -1831.3096    32.817902     34.22419    33.184438    2.8480557    119.95016    2379.0115 
  197000    304.74801   -10167.642            0   -10110.249   -1723.0833    32.817902     34.22419    33.184438    3.2161651    121.17904    2377.3579 
  198000    292.77845   -10168.957            0   -10113.817   -1574.8914    32.817902     34.22419    33.184438    2.0274853    122.36744    2374.9273 
  199000    299.50915   -10166.601            0   -10110.193   -979.48532    32.817902     34.22419    33.184438    2.2727949    123.57827    2372.9525 
  200000    299.52842   -10166.928            0   -10110.517   -1997.6137    32.817902     34.22419    33.184438    2.2376252    124.78653    2370.9441 
  201000    294.40939   -10168.227            0    -10112.78   -1071.1616    32.817902     34.22419    33.184438    2.0259589    125.97562    2368.5911 
  202000    293.50531   -10168.521            0   -10113.245   -991.03765    32.817902     34.22419    33.184438    2.1028255    127.23223    2367.5174 
  203000    298.99587   -10166.488            0   -10110.178   -1516.7748    32.817902     34.22419    33.184438    2.3426763    128.51206    2366.8679 
  204000    297.56843   -10169.444            0   -10113.402   -1809.6507    32.817902     34.22419    33.184438    2.0280557    129.79864    2366.3291 
  205000    299.36873   -10169.827            0   -10113.446   -62.601058    32.817902     34.22419    33.184438    2.5060988    131.10239     2366.086 
  206000    304.11178   -10168.116            0   -10110.842    296.30103    32.817902     34.22419    33.184438    2.8533389    132.40152    2365.7403 
  207000    308.28395   -10166.206            0   -10108.146   -1323.9495    32.817902     34.22419    33.184438    2.3854468    133.70417    2365.4393 
  208000    300.36761   -10169.366            0   -10112.797   -170.59302    32.817902     34.22419    33.184438    2.3274289    134.97841    2364.6218 
  209000    300.47579   -10170.687            0   -10114.097   -834.38303    32.817902     34.22419    33.184438    2.2077386    136.29334     2364.502 
  210000    300.12263   -10169.482            0   -10112.959   -1054.9571    32.817902     34.22419    33.184438    2.7725512    137.63317    2364.7881 
  211000    303.60035   -10167.751            0   -10110.573   -896.12736    32.817902     34.22419    33.184438    2.7555235    138.91389    2364.0391 
  212000    298.06385     -10170.7            0   -10114.566   -824.93839    32.817902     34.22419    33.184438    2.0569589    140.11462    2361.9322 
  213000    300.84139     -10168.7            0   -10112.042    130.12516    32.817902     34.22419    33.184438    2.7259586    141.33236    2360.1253 
  214000    313.00566   -10168.552            0   -10109.603   -451.95278    32.817902     34.22419    33.184438    2.1615109    142.55952    2358.4847 
  215000    295.56074   -10168.288            0   -10112.625   -1344.5051    32.817902     34.22419    33.184438    2.6290497    143.79895    2357.0524 
  216000     290.2216   -10168.552            0   -10113.894   -641.49451    32.817902     34.22419    33.184438    2.4120232    145.00248    2355.0403 
  217000    306.64226   -10167.653            0   -10109.903   -779.73443    32.817902     34.22419    33.184438     2.618573    146.21114    2353.1247 
  218000    298.87114   -10168.114            0   -10111.827   -1317.1294    32.817902     34.22419    33.184438    2.7589404    147.48221    2352.2163 
  219000    298.83536     -10170.4            0   -10114.119   -1875.2758    32.817902     34.22419    33.184438    2.7351236    148.69136    2350.3232 
  220000    304.47272   -10169.144            0   -10111.803   -164.83297    32.817902     34.22419    33.184438    2.7716167    149.87357    2348.0193 
  221000    304.06502   -10169.603            0   -10112.338   -1304.3189    32.817902     34.22419    33.184438     2.410144    151.10237    2346.4575 
  222000    304.28105    -10172.39            0   -10115.084   -985.70204    32.817902     34.22419    33.184438    2.3832871    152.28996    2344.2668 
  223000    305.14561   -10170.458            0   -10112.989   -282.03868    32.817902     34.22419    33.184438    2.3257901    153.51712    2342.6963 
  224000    305.91837   -10168.892            0   -10111.278   -1837.3313    32.817902     34.22419    33.184438    2.0370673    154.70236     2340.497 
  225000    301.67702   -10171.243            0   -10114.427   -337.66654    32.817902     34.22419    33.184438    2.1455104    155.90124    2338.5187 
  226000     301.9628   -10171.788            0   -10114.919   -420.03132    32.817902     34.22419    33.184438    2.5008595    157.11024    2336.7032 
  227000    294.70948   -10170.242            0   -10114.739   -694.85682    32.817902     34.22419    33.184438    2.5107926     158.3402    2335.2063 
  228000    307.01566   -10170.095            0   -10112.275   -1114.2095    32.817902     34.22419    33.184438     2.082112    159.57763    2333.8229 
  229000    294.30681   -10171.207            0   -10115.779    -529.9666    32.817902     34.22419    33.184438    2.1418468    160.75407    2331.5571 
  230000    291.32918   -10170.039            0   -10115.172   -614.38033    32.817902     34.22419    33.184438    2.5494449    161.98361     2330.072 
  231000    307.40523   -10170.992            0   -10113.098   -893.81507    32.817902     34.22419    33.184438    2.5430995    163.22437    2328.7507 
  232000    297.76722   -10170.697            0   -10114.618   -1529.2231    32.817902     34.22419    33.184438    2.3766893    164.47603     2327.585 
  233000    286.33953   -10171.313            0   -10117.386   -755.76136    32.817902     34.22419    33.184438    2.5065732    165.76329    2326.9178 
  234000    301.78094   -10171.857            0   -10115.021   -485.69967    32.817902     34.22419    33.184438    2.1047895    167.09523    2326.8635 
  235000    301.20189   -10169.692            0   -10112.966    -395.7296    32.817902     34.22419    33.184438    2.2652709    168.39138    2326.2957 
  236000     295.3182   -10172.903            0   -10117.286    -962.9301    32.817902     34.22419    33.184438    2.4866564    169.66478    2325.4055 
  237000    294.21145   -10170.746            0   -10115.337     -651.067    32.817902     34.22419    33.184438     2.191053    170.97339    2324.9885 
  238000    295.93399   -10169.636            0   -10113.902   -318.80692    32.817902     34.22419    33.184438    2.1926146    172.20212    2323.4808 
  239000    296.89696   -10172.995            0    -10117.08   -191.82989    32.817902     34.22419    33.184438    2.0963699    173.51706    2323.1313 
  240000     294.5452   -10171.471            0   -10115.999   -279.53759    32.817902     34.22419    33.184438    2.2404705    174.75579    2321.7556 
  241000    302.28151    -10170.82            0    -10113.89   -508.37495    32.817902     34.22419    33.184438    2.1439032    176.04742    2321.0791 
  242000    307.33473   -10173.551            0    -10115.67    487.36816    32.817902     34.22419    33.184438    2.1527368     177.3377    2320.3764 
  243000    288.54321   -10171.865            0   -10117.523    620.02033    32.817902     34.22419    33.184438    2.9729287    178.64382    2319.8712 
  244000    304.32052    -10171.68            0   -10114.367   -392.26731    32.817902     34.22419    33.184438    2.3867055     179.8712    2318.3399 
  245000    303.76012    -10171.39            0   -10114.182    -1405.915    32.817902     34.22419    33.184438    2.3469435    181.11738    2317.0533 
  246000    301.97508   -10170.277            0   -10113.405   -511.01391    32.817902     34.22419    33.184438    2.2564022     182.3032    2315.0009 
  247000    300.67414   -10171.788            0   -10115.162   -1262.6935    32.817902     34.22419    33.184438    2.6123323    183.52236    2313.3805 
  248000    300.14956   -10173.888            0    -10117.36     -284.611    32.817902     34.22419    33.184438    2.3040845    184.71635    2311.4506 
  249000    307.54423   -10170.404            0   -10112.484   -645.43531    32.817902     34.22419    33.184438    2.3298677    185.87275    2309.0635 
  250000     306.5606   -10172.485            0    -10114.75   -886.28876    32.817902     34.22419    33.184438    2.5522974    187.08809    2307.4198 
  251000    285.83043    -10170.12            0   -10116.289   -516.46213    32.817902     34.22419    33.184438    2.3305405    188.26539    2305.3159 
  252000    313.86739   -10171.159            0   -10112.048    -14.79589    32.817902     34.22419    33.184438    2.0909756    189.45094    2303.3246 
  253000    296.42038   -10171.341            0   -10115.515   -652.75182    32.817902     34.22419    33.184438    2.4849001    190.65443    2301.5604 
  254000    298.47132   -10170.094            0   -10113.883   -1405.7469    32.817902     34.22419    33.184438     1.878245    191.83711    2299.5539 
  255000    308.02536   -10169.854            0   -10111.842   -593.72287    32.817902     34.22419    33.184438    2.3557276    193.07242    2298.1846 
  256000    296.09779   -10171.162            0   -10115.397     154.1566    32.817902     34.22419    33.184438    2.3619832     194.2811    2296.5023 
  257000     300.8544   -10170.949            0   -10114.289   -264.91057    32.817902     34.22419    33.184438    2.5762197    195.49758    2294.9174 
  258000    308.18877   -10168.403            0   -10110.361    183.16106    32.817902     34.22419    33.184438    2.0066285    196.70443     2293.225 
  259000    310.46289    -10171.99            0    -10113.52   -424.89379    32.817902     34.22419    33.184438    2.9028169    197.90065    2291.4157 
  260000    295.96372   -10170.789            0   -10115.049   -991.41659    32.817902     34.22419    33.184438    2.6517608     199.1333     2290.033 
  261000    299.60818   -10170.921            0   -10114.496   -489.40644    32.817902     34.22419    33.184438    2.6442134    200.34843    2288.4519 
  262000    301.47395   -10168.447            0    -10111.67     -318.864    32.817902     34.22419    33.184438    2.9252934    201.56468    2286.8882 
  263000    295.97399   -10171.541            0     -10115.8   -66.740356    32.817902     34.22419    33.184438    2.3771028    202.81199    2285.6787 
  264000    304.46133   -10172.334            0   -10114.994    -518.7292    32.817902     34.22419    33.184438     2.426245    204.00377    2283.8471 
  265000    301.62749   -10169.717            0    -10112.91     419.2014    32.817902     34.22419    33.184438     2.462323    205.20049    2282.0782 
  266000    303.70417   -10171.091            0   -10113.894   -530.82203    32.817902     34.22419    33.184438    2.6368278    206.44451    2280.8388 
  267000    294.77589   -10171.356            0    -10115.84    -289.7121    32.817902     34.22419    33.184438    2.1404001    207.69163    2279.6333 
  268000    297.83478   -10173.185            0   -10117.093   -879.38725    32.817902     34.22419    33.184438    2.4350324    208.94866    2278.5354 
  269000    302.75185   -10170.167            0    -10113.15   -1059.1498    32.817902     34.22419    33.184438      2.53132    210.24114    2277.8197 
  270000    300.02763    -10171.67            0   -10115.165   -1032.4967    32.817902     34.22419    33.184438    2.1581521    211.50673    2276.8077 
  271000    293.45321   -10172.594            0   -10117.327   -1256.3968    32.817902     34.22419    33.184438    2.6455934    212.68228    2274.8298 
  272000    298.20853   -10170.933            0    -10114.77   -260.41263    32.817902     34.22419    33.184438     1.793698     213.9676    2274.0278 
  273000    302.57332    -10170.37            0   -10113.386   -8.1322404    32.817902     34.22419    33.184438    2.4084634    215.20992    2272.7661 
  274000    302.36595   -10171.243            0   -10114.297   -242.13055    32.817902     34.22419    33.184438    2.5246585    216.48141    2271.8106 
  275000    289.64458   -10171.001            0   -10116.452   -1501.4207    32.817902     34.22419    33.184438     2.113911    217.79158    2271.2551 
  276000    313.20819   -10171.034            0   -10112.047   -505.71755    32.817902     34.22419    33.184438    2.2612721    219.06241    2270.2831 
  277000    307.04528   -10172.522            0   -10114.696    142.50389    32.817902     34.22419    33.184438    2.5408227    220.29423    2268.9061 
  278000    292.41122    -10170.61            0    -10115.54   -672.03646    32.817902     34.22419    33.184438    2.2739026    221.55182    2267.7945 
  279000    310.06528   -10169.542            0   -10111.147   -1355.2668    32.817902     34.22419    33.184438    2.6430612    222.78681    2266.4513 
  280000    298.63921    -10171.63            0   -10115.386   -253.25428    32.817902     34.22419    33.184438    2.8385569     223.9852    2264.7393 
  281000    300.23621   -10171.795            0   -10115.251   -1013.9319    32.817902     34.22419    33.184438    2.0920279    225.19784    2263.1761 
  282000    311.77026   -10169.916            0   -10111.199   -882.77945    32.817902     34.22419    33.184438    2.9440646    226.46543    2262.1657 
  283000    302.70802   -10172.009            0   -10114.999    -971.5213    32.817902     34.22419    33.184438    2.0978159    227.67191    2260.5457 
  284000     299.1367   -10171.503            0   -10115.166    178.01136    32.817902     34.22419    33.184438    2.3279785    228.87704    2258.9169 
  285000    310.97373   -10169.857            0   -10111.291   -2025.0017    32.817902     34.22419    33.184438    2.4296797    230.07308    2257.2035 
  286000    307.24781   -10172.398            0   -10114.534   -359.28199    32.817902     34.22419    33.184438    2.3905812    231.22972    2255.1114 
  287000    296.35097   -10171.196            0   -10115.384   -1492.3926    32.817902     34.22419    33.184438    2.3177575    232.42473    2253.4012 
  288000    303.40245   -10169.421            0   -10112.281   -508.99687    32.817902     34.22419    33.184438    2.7907987    233.63183    2251.8131 
  289000    296.77037   -10172.085            0   -10116.194   -436.36029    32.817902     34.22419    33.184438    2.2469934    234.83659    2250.2067 
  290000    301.40809   -10172.386            0   -10115.621   -561.16137    32.817902     34.22419    33.184438    2.1230195    236.01249    2248.3295 
  291000    303.98665   -10170.304            0   -10113.054   -699.69671    32.817902     34.22419    33.184438    2.1455527    237.23022    2246.8559 
  292000     290.5825   -10172.486            0    -10117.76   -840.59384    32.817902     34.22419    33.184438    1.9896336    238.41499    2245.0745 
  293000    305.42193   -10172.006            0   -10114.485   -361.73215    32.817902     34.22419    33.184438    2.5905166    239.59127    2243.2198 
  294000    302.18854   -10170.956            0   -10114.044    -55.04148    32.817902     34.22419    33.184438    1.9847417    240.79886    2241.6636 
  295000    288.17451   -10173.454            0   -10119.182   -279.69849    32.817902     34.22419    33.184438    2.1696252    241.97217    2239.7937 
  296000    303.43245   -10172.812            0   -10115.666   -1254.3034    32.817902     34.22419    33.184438    2.5282621    243.14168    2237.8958 
  297000    304.27685   -10171.467            0   -10114.162   -761.66124    32.817902     34.22419    33.184438    2.1085488    244.31894    2236.0764 
  298000    292.03887    -10173.52            0    -10118.52   -553.38263    32.817902     34.22419    33.184438    2.4837402     245.5254    2234.5292 
  299000    293.73083   -10170.844            0   -10115.525   -468.27909    32.817902     34.22419    33.184438    2.3129422    246.79084    2233.5191 
  300000    302.01095   -10171.587            0   -10114.708    -1461.458    32.817902     34.22419    33.184438    2.0742449    248.10408    2232.9367 
  301000    288.02312   -10171.593            0   -10117.349   -827.12634    32.817902     34.22419    33.184438     2.104824    249.41031    2232.2843 
  302000    294.44586    -10171.94            0   -10116.486   -941.91364    32.817902     34.22419    33.184438    2.1744852    250.71358    2231.5991 
  303000    304.73189   -10171.576            0   -10114.185   -872.25032    32.817902     34.22419    33.184438    2.4966628    251.98525    2230.6281 
  304000    296.84921   -10172.797            0   -10116.891   -1159.6776    32.817902     34.22419    33.184438    2.1311201    253.21592    2229.2931 
  305000     295.9397   -10172.685            0    -10116.95   -1470.9945    32.817902     34.22419    33.184438    2.4888177    254.48154    2228.2652 
  306000    307.15325   -10171.503            0   -10113.657   -815.74015    32.817902     34.22419    33.184438    2.2082013    255.74884    2227.2496 
  307000    297.17116   -10172.993            0   -10117.026   -1015.9377    32.817902     34.22419    33.184438    2.3926021    257.01126    2226.1894 
  308000     306.8317   -10172.189            0   -10114.403   -1286.2442    32.817902     34.22419    33.184438    2.1383563    258.29148    2225.2805 
  309000    303.31995   -10170.967            0   -10113.842   -825.53464    32.817902     34.22419    33.184438    2.2028201    259.54522    2224.1411 
  310000    300.90108   -10173.473            0   -10116.804   -1085.2096    32.817902     34.22419    33.184438    2.2822424    260.74982    2222.5818 
  311000    306.22437    -10170.15            0   -10112.478   -1057.2166    32.817902     34.22419    33.184438    2.2755147    261.99554    2221.3745 
  312000    305.34713   -10171.501            0   -10113.995   -727.90455    32.817902     34.22419    33.184438    2.1075442    263.19252    2219.7558 
  313000    289.57333   -10170.937            0   -10116.401   -499.70202    32.817902     34.22419    33.184438    2.1848702    264.39934    2218.2236 
  314000    306.12779   -10169.816            0   -10112.162   -428.89035    32.817902     34.22419    33.184438    2.4511351    265.62681    2216.8667 
  315000    304.54851   -10171.692            0   -10114.336   -558.91651    32.817902     34.22419    33.184438    2.3832322    266.81261    2215.1652 
  316000    297.65208   -10171.415            0   -10115.357   -1028.5972    32.817902     34.22419    33.184438    2.1471741    268.03894    2213.8031 
  317000    308.91698   -10171.573            0   -10113.394   -721.13962    32.817902     34.22419    33.184438     2.416342    269.20058    2211.9108 
  318000    296.04777   -10168.705            0    -10112.95   -1228.6329    32.817902     34.22419    33.184438    2.3726234    270.40722     2210.393 
  319000    299.89294   -10172.535            0   -10116.055   -865.52409    32.817902     34.22419    33.184438    2.0046129    271.59026    2208.6861 
  320000    307.05104   -10171.675            0   -10113.847   -384.91616    32.817902     34.22419    33.184438    2.3616431    272.77341    2206.9848 
  321000    310.76023   -10171.555            0   -10113.029   -1073.5837    32.817902     34.22419    33.184438    2.3695946    273.97936    2205.4719 
  322000    291.04105   -10171.274            0   -10116.461   -1294.9906    32.817902     34.22419    33.184438    2.3265266    275.21676    2204.2135 
  323000    302.78963   -10170.532            0   -10113.507   -723.97574    32.817902     34.22419    33.184438    2.2441494    276.35195    2202.1409 
  324000    301.38794   -10171.847            0   -10115.086   -1165.5006    32.817902     34.22419    33.184438    2.1338882    277.53615    2200.4652 
  325000     298.0748   -10172.594            0   -10116.457   -1941.0065    32.817902     34.22419    33.184438    2.0643792    278.69328    2198.5803 
  326000    305.58939   -10171.165            0   -10113.613    153.55412    32.817902     34.22419    33.184438    2.6588522    279.90027    2197.0933 
  327000    292.08595   -10173.058            0   -10118.049   -782.07357    32.817902     34.22419    33.184438     2.136703    281.10717     2195.608 
  328000     282.6084   -10170.697            0   -10117.473   -1008.0816    32.817902     34.22419    33.184438    2.8136783    282.34409    2194.3584 
  329000    299.57988    -10170.62            0   -10114.199   -788.17673    32.817902     34.22419    33.184438    2.0078629    283.55644     2192.919 
  330000    294.85086   -10171.772            0   -10116.242   -1434.8378    32.817902     34.22419    33.184438    2.3032095    284.79477    2191.6815 
  331000     294.3119    -10173.12            0   -10117.692   -1332.1058    32.817902     34.22419    33.184438    2.2973331     285.9975    2190.1713 
  332000    303.87715   -10171.039            0   -10113.809    -117.6402    32.817902     34.22419    33.184438    2.8007736    287.22737    2188.8707 
  333000    292.59637   -10171.149            0   -10116.044   -493.88151    32.817902     34.22419    33.184438     1.993366    288.49616    2187.8657 
  334000    299.72091   -10175.077            0    -10118.63   -827.01943    32.817902     34.22419    33.184438    2.7462652    289.74675    2186.7212 
  335000    291.95822    -10169.42            0   -10114.435   -1323.6788    32.817902     34.22419    33.184438    2.5526147     291.0309    2185.8278 
  336000    300.14072   -10171.294            0   -10114.768   -721.87356    32.817902     34.22419    33.184438    2.2780477    292.26719    2184.5734 
  337000    289.48422   -10173.282            0   -10118.763   -642.06585    32.817902     34.22419    33.184438     2.028693    293.51339    2183.3928 
  338000    292.31989   -10171.429            0   -10116.376   -995.78785    32.817902     34.22419    33.184438    2.5631644    294.78769    2182.4198 
  339000    304.14032   -10171.343            0   -10114.063   -1018.9344    32.817902     34.22419    33.184438    2.3349497    296.08348    2181.6026 
  340000    298.16097   -10174.278            0   -10118.125   -1180.8968    32.817902     34.22419    33.184438    2.2268301    297.36413    2180.6703 
  341000    299.72098   -10172.905            0   -10116.457   -1102.1348    32.817902     34.22419    33.184438    2.4034096    298.62879    2179.6184 
  342000    309.20845   -10173.311            0   -10115.077   -911.56091    32.817902     34.22419    33.184438    2.3839733    299.86605    2178.3658 
  343000     308.9213    -10174.61            0   -10116.431    -1944.353    32.817902     34.22419    33.184438    2.2297097      301.062    2176.8146 
  344000    294.12362   -10171.198            0   -10115.805   -267.90797    32.817902     34.22419    33.184438    2.6273347     302.2791    2175.4184 
  345000     301.8769   -10171.101            0   -10114.248   -486.96136    32.817902     34.22419    33.184438    2.7740661     303.4562    2173.7372 
  346000    294.57328   -10173.528            0    -10118.05   -107.41209    32.817902     34.22419    33.184438    2.4218299    304.67048    2172.3253 
  347000    300.16774   -10172.045            0   -10115.514   -426.18039    32.817902     34.22419    33.184438    2.5875031    305.90694    2171.0723 
  348000    306.65975    -10173.03            0   -10115.276   -408.72505    32.817902     34.22419    33.184438    2.7496532    307.14501    2169.8309 
  349000     293.9093    -10173.03            0   -10117.677    174.89676    32.817902     34.22419    33.184438    2.2580557    308.34234     2168.303 
  350000    299.64548   -10171.433            0       -10115   -968.03587    32.817902     34.22419    33.184438    2.3440107    309.60351    2167.2246 
  351000    307.10344   -10172.838            0       -10115   -1784.5272    32.817902     34.22419    33.184438    2.7630468     310.8706     2166.186 
  352000    301.09918   -10173.974            0   -10117.267   -346.37431    32.817902     34.22419    33.184438    2.6651774    312.08906    2164.8083 
  353000    302.70544   -10172.565            0   -10115.555   -111.65493    32.817902     34.22419    33.184438    2.1524649    313.33948    2163.6525 
  354000    301.77257   -10171.264            0    -10114.43   -1483.0114    32.817902     34.22419    33.184438    2.7787867    314.52337    2162.0386 
  355000    292.93672   -10171.277            0   -10116.108   -695.50607    32.817902     34.22419    33.184438    2.2795137    315.71902    2160.5086 
  356000    291.46042   -10172.965            0   -10118.074   -717.76642    32.817902     34.22419    33.184438    2.1610532    316.89527    2158.8491 
  357000    303.41217    -10170.56            0   -10113.418   -769.07486    32.817902     34.22419    33.184438    2.9904987    318.11328    2157.4765 
  358000    304.33434   -10173.548            0   -10116.232    -914.1754    32.817902     34.22419    33.184438    2.2136657    319.32347    2156.0523 
  359000    300.87274    -10173.64            0   -10116.976   -1779.9957    32.817902     34.22419    33.184438    2.1985695    320.54092    2154.6786 
  360000    300.63384   -10172.094            0   -10115.475   -1117.1717    32.817902     34.22419    33.184438    2.6944924    321.68631    2152.8237 
  361000    295.52031   -10172.875            0   -10117.219   -433.44514    32.817902     34.22419    33.184438     2.422003    322.88456    2151.3267 
  362000    291.52037   -10173.405            0   -10118.502    -1363.226    32.817902     34.22419    33.184438    2.1684303    324.05903     2149.674 
  363000     302.0793   -10172.108            0   -10115.216   -724.43033    32.817902     34.22419    33.184438    2.1054437     325.2855    2148.3685 
  364000    295.30317   -10173.794            0   -10118.179   -1606.7014    32.817902     34.22419    33.184438    2.3693825    326.56603    2147.4191 
  365000    295.35991   -10173.742            0   -10118.116   -727.77184    32.817902     34.22419    33.184438    1.8640122    327.82254    2146.3098 
  366000    293.43892   -10170.515            0   -10115.251   -493.03951    32.817902     34.22419    33.184438     2.530286    329.13179    2145.5433 
  367000    291.00546   -10172.656            0    -10117.85   -1305.2903    32.817902     34.22419    33.184438    2.0300082    330.39597    2144.4802 
  368000    301.63135   -10172.791            0   -10115.984   -1271.9609    32.817902     34.22419    33.184438    2.2703929    331.70346    2143.6955 
  369000    302.62278   -10171.725            0   -10114.731    -121.8608    32.817902     34.22419    33.184438    2.5492774     332.9113    2142.2656 
  370000    290.78162   -10172.097            0   -10117.333   -1803.1135    32.817902     34.22419    33.184438    2.7798004    334.14747     2141.019 
  371000    299.46833   -10172.566            0   -10116.167   -1741.4392    32.817902     34.22419    33.184438    2.3440655    335.41325    2139.9613 
  372000    313.43999   -10171.537            0   -10112.506   -847.25062    32.817902     34.22419    33.184438    3.0162583    336.75499    2139.3846 
  373000    303.73039   -10173.066            0   -10115.864   -992.37423    32.817902     34.22419    33.184438    2.7692258    338.06742     2138.617 
  374000    292.66692   -10172.191            0   -10117.073    -1632.369    32.817902     34.22419    33.184438    2.3086756    339.33164    2137.5416 
  375000    307.59203   -10170.992            0   -10113.062   -717.61253    32.817902     34.22419    33.184438    2.4400501    340.58761    2136.4132 
  376000    304.03263   -10174.137            0   -10116.878   -1474.8098    32.817902     34.22419    33.184438     2.585373     341.8348     2135.229 
  377000    302.02957   -10173.638            0   -10116.756   -210.88351    32.817902     34.22419    33.184438    2.2505261    343.06143    2133.9164 
  378000     304.3779   -10171.585            0   -10114.261   -1042.9297    32.817902     34.22419    33.184438    2.5552537    344.27994    2132.5542 
  379000     293.0621   -10172.126            0   -10116.933   -1196.3875    32.817902     34.22419    33.184438    2.2003306    345.46916    2131.0123 
  380000    291.40691   -10172.018            0   -10117.137   -852.53935    32.817902     34.22419    33.184438    2.2980873    346.65575    2129.4568 
  381000     303.6746   -10171.755            0   -10114.563   -1479.1207    32.817902     34.22419    33.184438    2.4060339    347.84238    2127.9041 
  382000    305.23019   -10173.841            0   -10116.356   -365.68765    32.817902     34.22419    33.184438    2.4535481     349.0584    2126.5331 
  383000    290.64693   -10172.756            0   -10118.017    -269.6839    32.817902     34.22419    33.184438    2.3376625     350.2667    2125.1164 
  384000    304.06373   -10171.049            0   -10113.784   -947.16974    32.817902     34.22419    33.184438    2.1577432    351.43384    2123.4524 
  385000    298.94282   -10172.937            0   -10116.636   -1758.8397    32.817902     34.22419    33.184438    2.4091826    352.64266    2122.0427 
  386000    291.33946   -10171.974            0   -10117.105   -640.65944    32.817902     34.22419    33.184438    2.4608656    353.83803    2120.5538 
  387000    302.04009   -10171.964            0    -10115.08   -1074.8304    32.817902     34.22419    33.184438    2.3687771    355.07386    2119.3085 
  388000    303.91205   -10173.341            0   -10116.105     -1200.39    32.817902     34.22419    33.184438    2.1141743    356.29147    2117.9548 
  389000    297.71855   -10172.367            0   -10116.297    -1076.624    32.817902     34.22419    33.184438    2.1599484    357.47298    2116.3885 
  390000    296.50833   -10171.535            0   -10115.693   -410.79426    32.817902     34.22419    33.184438    2.1849331    358.68853    2115.0255 
  391000    295.06835   -10171.214            0   -10115.643   -727.95121    32.817902     34.22419    33.184438    2.1683283    359.87288    2113.4803 
  392000    302.64444    -10175.47            0   -10118.472   -1330.7853    32.817902     34.22419    33.184438    2.3094473     361.0621     2111.966 
  393000    303.86359   -10171.545            0   -10114.317   -1968.1623    32.817902     34.22419    33.184438    2.0262794    362.22555    2110.3038 
  394000    306.63901   -10173.624            0   -10115.874   -862.35145    32.817902     34.22419    33.184438    2.5973851    363.39122    2108.6579 
  395000    292.78535   -10172.183            0   -10117.042   -1156.2329    32.817902     34.22419    33.184438    2.1856111    364.62831    2107.4281 
  396000    301.28214   -10173.035            0   -10116.294   -332.57804    32.817902     34.22419    33.184438    2.2786318    365.84454     2106.078 
  397000    297.46649   -10171.553            0    -10115.53   -525.93777    32.817902     34.22419    33.184438    3.0344732    367.09595    2104.9307 
  398000    298.91432   -10172.351            0   -10116.056   -256.86624    32.817902     34.22419    33.184438    2.7199966    368.35726    2103.8391 
  399000     290.4574   -10173.981            0   -10119.279   -1772.5727    32.817902     34.22419    33.184438    2.3420893    369.66661    2103.0197 
  400000    300.65014    -10171.28            0   -10114.658   -1713.2806    32.817902     34.22419    33.184438    2.5379214    370.97186    2102.1739 
  401000    297.40174   -10172.406            0   -10116.395   -832.10748    32.817902     34.22419    33.184438    2.2650845    372.21619    2100.9811 
  402000    298.86716   -10175.432            0   -10119.146   -1576.9221    32.817902     34.22419    33.184438    2.3134446    373.44533    2099.7025 
  403000    292.04335   -10174.213            0   -10119.212   -2303.1175    32.817902     34.22419    33.184438    1.9634377    374.72946    2098.7323 
  404000    305.37786   -10173.128            0   -10115.616   -1110.2852    32.817902     34.22419    33.184438    2.2777167    375.99738    2097.6696 
  405000    302.72832   -10174.299            0   -10117.286   -1256.4287    32.817902     34.22419    33.184438    2.9611888     377.2964    2096.7783 
  406000    293.07651   -10173.997            0   -10118.801   -1025.0391    32.817902     34.22419    33.184438    2.5305092     378.5779    2095.7875 
  407000    302.39813     -10173.4            0   -10116.449   -417.33779    32.817902     34.22419    33.184438    2.3373901    379.87699    2094.8917 
  408000    302.36407   -10174.479            0   -10117.534   -334.59309    32.817902     34.22419    33.184438    2.7055308    381.06518     2093.384 
  409000    286.36654   -10174.989            0   -10121.057   -960.73504    32.817902     34.22419    33.184438    2.2215359    382.24174    2091.8149 
  410000    301.25458   -10174.318            0   -10117.582   -1167.4814    32.817902     34.22419    33.184438    2.3811988    383.44751    2090.4074 
  411000    299.91969   -10171.914            0    -10115.43   -264.13405    32.817902     34.22419    33.184438    2.1098012    384.64189    2088.9394 
  412000    296.38878   -10171.789            0    -10115.97   -1178.5277    32.817902     34.22419    33.184438    2.2971829    385.82572    2087.4161 
  413000    292.46403   -10173.832            0   -10118.751   -1112.2564    32.817902     34.22419    33.184438    2.4981495    387.01035    2085.8992 
  414000    300.95123   -10171.314            0   -10114.635   -808.98312    32.817902     34.22419    33.184438    2.3514736     388.2174    2084.5049 
  415000    300.31139   -10172.539            0   -10115.981   -589.87114    32.817902     34.22419    33.184438    2.6108016    389.44067    2083.1985 
  416000    293.81988   -10174.198            0   -10118.862   -1223.0494    32.817902     34.22419    33.184438    2.3720697    390.64722    2081.8036 
  417000    289.37798   -10174.945            0   -10120.446    -1660.654    32.817902     34.22419    33.184438    2.7286717    391.84041    2080.3389 
  418000    302.12774   -10173.501            0   -10116.601   -465.37669    32.817902     34.22419    33.184438    2.4598044    393.04638    2078.9435 
  419000    293.04057   -10171.852            0   -10116.663   -1878.3291    32.817902     34.22419    33.184438    2.8357207    394.23888    2077.4782 
  420000    292.96568    -10174.49            0   -10119.315   -1249.5668    32.817902     34.22419    33.184438    2.3870759    395.43125    2076.0141 
  421000    306.70297    -10173.45            0   -10115.688   -1830.0059    32.817902     34.22419    33.184438    2.8050194    396.64075    2074.6412 
  422000    300.67259   -10172.624            0   -10115.997    -1196.337    32.817902     34.22419    33.184438    2.2686341    397.84515    2073.2427 
  423000    291.79276    -10174.55            0   -10119.596   -1195.4863    32.817902     34.22419    33.184438    1.9714928    399.10253    2072.1206 
  424000    295.56015   -10174.447            0   -10118.783    -1585.927    32.817902     34.22419    33.184438     2.659669    400.29061    2070.6391 
  425000    310.87514   -10174.029            0   -10115.481   -1629.1462    32.817902     34.22419    33.184438    2.3713701    401.50532    2069.2967 
  426000     306.4612   -10175.941            0   -10118.225   -1004.3048    32.817902     34.22419    33.184438    2.9962824    402.70136    2067.8592 
  427000    299.02441   -10173.885            0   -10117.569   -1405.6448    32.817902     34.22419    33.184438    2.2467186    403.89847    2066.4286 
  428000    301.05836    -10171.89            0   -10115.191    -1296.981    32.817902     34.22419    33.184438    2.3834869     405.0836    2064.9384 
  429000    290.93156   -10173.275            0   -10118.483   -568.84541    32.817902     34.22419    33.184438    2.3297423    406.36433    2063.9355 
  430000     308.7826   -10172.214            0   -10114.061   -1310.1446    32.817902     34.22419    33.184438    2.1527684     407.6556    2062.9844 
  431000    301.57354   -10173.094            0   -10116.298   -751.63734    32.817902     34.22419    33.184438    2.7383508    408.94352    2062.0143 
  432000    299.18766   -10174.165            0   -10117.818   -943.64699    32.817902     34.22419    33.184438    2.6194735    410.21551    2060.9623 
  433000    303.21937   -10170.337            0   -10113.231   -698.81071    32.817902     34.22419    33.184438    3.0308185    411.46474     2059.795 
  434000    301.38768   -10172.311            0    -10115.55   -1216.4208    32.817902     34.22419    33.184438    2.1457709    412.66998    2058.4077 
  435000    295.49103   -10172.835            0   -10117.185   -839.03471    32.817902     34.22419    33.184438    1.8611954    413.91504    2057.2195 
  436000    291.56248   -10171.468            0   -10116.558   -1072.2372    32.817902     34.22419    33.184438    3.2755106    415.19194    2056.1886 
  437000    302.06392    -10171.19            0   -10114.302   -354.92104    32.817902     34.22419    33.184438    2.3368175    416.49707    2055.2956 
  438000    285.52541   -10172.045            0   -10118.271   -1541.7118    32.817902     34.22419    33.184438    3.0060715    417.80752    2054.4264 
  439000    303.28224   -10173.825            0   -10116.707   -675.26463    32.817902     34.22419    33.184438    2.7168675    419.13384    2053.6322 
  440000    304.36933   -10173.371            0   -10116.049   -1035.7051    32.817902     34.22419    33.184438    2.3554058    420.34466     2052.271 
  441000    301.11526   -10174.182            0   -10117.472    -407.0247    32.817902     34.22419    33.184438    3.1910361    421.57866    2051.0234 
  442000    296.23902   -10174.718            0   -10118.927   -1179.7002    32.817902     34.22419    33.184438      3.02001    422.79313    2049.6813 
  443000    307.39195   -10173.708            0   -10115.816   -727.27529    32.817902     34.22419    33.184438    2.3669687    424.00102    2048.3081 
  444000    298.56998   -10172.979            0   -10116.748   -1660.9823    32.817902     34.22419    33.184438    2.2766366    425.17354    2046.7657 
  445000    290.47762   -10173.786            0    -10119.08    431.17768    32.817902     34.22419    33.184438    2.1347018    426.36753    2045.3283 
  446000    295.87483   -10171.877            0   -10116.154    -1462.089    32.817902     34.22419    33.184438     2.232905    427.61344    2044.1406 
  447000     303.1334   -10174.048            0   -10116.958   -461.08742    32.817902     34.22419    33.184438    2.4493531    428.83004    2042.8128 
  448000    296.05908   -10173.173            0   -10117.416   -1632.3439    32.817902     34.22419    33.184438    2.5934354    430.06267    2041.5619 
  449000    300.85137   -10173.772            0   -10117.112   -845.42513    32.817902     34.22419    33.184438    2.5259941    431.27377    2040.2092 
  450000    309.73724   -10172.372            0   -10114.038   -809.09127    32.817902     34.22419    33.184438    2.0664076      432.436    2038.6269 
  451000    297.66026   -10174.278            0   -10118.219    -1116.601    32.817902     34.22419    33.184438     2.787158    433.62909     2037.192 
  452000    293.55109   -10173.006            0   -10117.721   -170.35852    32.817902     34.22419    33.184438    2.3621215    434.84473     2035.864 
  453000    316.00672   -10173.386            0   -10113.872   -1433.0178    32.817902     34.22419    33.184438    2.2481893     436.0587    2034.5289 
  454000    293.21353   -10174.376            0   -10119.155    -803.2053    32.817902     34.22419    33.184438    2.5440395    437.26543    2033.1608 
  455000    299.85628   -10173.148            0   -10116.675   -856.57666    32.817902     34.22419    33.184438    2.2184351    438.47369    2031.8006 
  456000    299.25795   -10172.708            0   -10116.348   -1200.0876    32.817902     34.22419    33.184438    2.8118395    439.68791    2030.4689 
  457000    291.41573   -10174.662            0   -10119.779   -2211.9054    32.817902     34.22419    33.184438    2.1220726    440.89341    2029.0977 
  458000    299.73116   -10173.556            0   -10117.107   -1331.5697    32.817902     34.22419    33.184438    2.1784279    442.09486    2027.7088 
  459000    296.58788    -10172.81            0   -10116.953   -1403.4128    32.817902     34.22419    33.184438    3.0055089     443.2603    2026.1564 
  460000    289.73421   -10174.403            0   -10119.837   -835.26653    32.817902     34.22419    33.184438    2.2922791    444.45511    2024.7399 
  461000    304.28361   -10173.201            0   -10115.895    -388.8004    32.817902     34.22419    33.184438    2.7035465     445.6484    2023.3178 
  462000    297.31858    -10172.52            0   -10116.526   -525.49693    32.817902     34.22419    33.184438    2.6338898    446.92619    2022.2793 
  463000     303.2381   -10174.461            0   -10117.351   -581.53802    32.817902     34.22419    33.184438    2.2379855    448.19725    2021.2091 
  464000     295.8265   -10172.938            0   -10117.224   -732.34628    32.817902     34.22419    33.184438    2.7080209    449.49434    2020.2548 
  465000    309.12126   -10173.709            0   -10115.492   -1323.1808    32.817902     34.22419    33.184438    3.2215389    450.76364    2019.1741 
  466000    307.73302   -10175.405            0   -10117.449   -104.96287    32.817902     34.22419    33.184438    2.7677745    451.98696    2017.8872 
  467000    291.12711   -10173.807            0   -10118.979   -1046.1064    32.817902     34.22419    33.184438    2.9028897    453.25018    2016.7781 
  468000    310.26357   -10172.656            0   -10114.223   -1110.5707    32.817902     34.22419    33.184438    2.8922598    454.49136    2015.5704 
  469000    303.94315   -10172.837            0   -10115.595   -1299.2694    32.817902     34.22419    33.184438    2.2299062    455.76824    2014.5203 
  470000     295.8599   -10174.481            0   -10118.762   -1029.2604    32.817902     34.22419    33.184438    2.3695404    457.08081    2013.6263 
  471000    309.46473   -10173.314            0   -10115.032   -1783.8641    32.817902     34.22419    33.184438     2.649584    458.37847    2012.6645 
  472000    312.59458   -10174.504            0   -10115.632   -519.56005    32.817902     34.22419    33.184438    2.1723893    459.61777    2011.4455 
  473000    289.02524   -10172.207            0   -10117.774    -591.9677    32.817902     34.22419    33.184438    2.1511463    460.82892    2010.1037 
  474000    301.52996   -10174.074            0   -10117.286   -1647.8355    32.817902     34.22419    33.184438    2.7751314    462.01219    2008.6413 
  475000     304.8712    -10172.96            0   -10115.543   -551.04358    32.817902     34.22419    33.184438    2.6099987    463.18728    2007.1449 
[...]
 1979000    307.86231   -10177.424            0   -10119.444   -1438.1908    32.817902     34.22419    33.184438    2.4168907    2310.7867    148.80532 
 1980000    298.37875   -10179.725            0   -10123.531    -1729.524    32.817902     34.22419    33.184438    2.2240093     2311.967    147.57236 
 1981000    304.67548       -10178            0    -10120.62   -1414.6962    32.817902     34.22419    33.184438    2.4252732    2313.1831    146.34173 
 1982000    296.72199   -10175.753            0    -10119.87   -1696.8247    32.817902     34.22419    33.184438    2.4304779    2314.4429    145.11385 
 1983000    299.05434   -10178.834            0   -10122.513    -2098.706    32.817902     34.22419    33.184438    2.2734406    2315.6402    143.88205 
 1984000    299.03677   -10178.257            0   -10121.939   -1301.4759    32.817902     34.22419    33.184438    2.2754926    2316.8171    142.64903 
 1985000    298.63983   -10175.998            0   -10119.754   -2334.2313    32.817902     34.22419    33.184438    2.6733912    2317.9819    141.41534 
 1986000    291.77711   -10177.662            0   -10122.711   -2099.6876    32.817902     34.22419    33.184438    2.0864082    2319.1363    140.18109 
 1987000    299.37494    -10178.06            0   -10121.678   -1583.3567    32.817902     34.22419    33.184438    2.7199306    2320.3395    138.94985 
 1988000    298.81546   -10175.625            0   -10119.348   -856.01059    32.817902     34.22419    33.184438    2.7107946    2321.5167    137.71709 
 1989000     308.3913   -10177.056            0   -10118.976   -556.10276    32.817902     34.22419    33.184438    2.6150229    2322.7199    136.48592 
 1990000    298.20961   -10178.325            0   -10122.162   -1339.8945    32.817902     34.22419    33.184438    1.8311991    2323.9252    135.25491 
 1991000    298.85629   -10178.327            0   -10122.043   -2408.7235    32.817902     34.22419    33.184438    2.1753434    2325.1201    134.02332 
 1992000    309.95107   -10177.221            0   -10118.847   -1808.3794    32.817902     34.22419    33.184438    2.1309529    2326.3776    132.79534 
 1993000    296.13348   -10178.988            0   -10123.217   -2299.7422    32.817902     34.22419    33.184438    2.1914942    2327.6629     131.5689 
 1994000    300.82813   -10177.879            0   -10121.224    -2277.823    32.817902     34.22419    33.184438    2.2517997    2328.9655    130.34337 
 1995000    303.08331   -10177.367            0   -10120.287    -1658.782    32.817902     34.22419    33.184438    2.2242417    2330.3045    129.11977 
 1996000    298.44808   -10180.295            0   -10124.088    -1592.074    32.817902     34.22419    33.184438    2.4907746    2331.6338    127.89553 
 1997000    306.80886   -10178.169            0   -10120.387   -2302.3347    32.817902     34.22419    33.184438    2.2970864    2332.8158    126.66316 
 1998000    297.56475   -10178.787            0   -10122.746   -1725.4817    32.817902     34.22419    33.184438    1.8935659    2334.0541    125.43389 
 1999000    292.51754   -10178.853            0   -10123.763    -2837.281    32.817902     34.22419    33.184438    2.1793242    2335.2957    124.20477 
 2000000    307.24213   -10178.898            0   -10121.034   -1953.1434    32.817902     34.22419    33.184438    2.1398513     2336.548    122.97621 
 2001000    291.75919   -10178.084            0   -10123.136   -2043.6964    32.817902     34.22419    33.184438    2.4102966    2337.8628    121.75088 
 2002000    297.09726   -10180.565            0   -10124.612   -1994.9184    32.817902     34.22419    33.184438    1.9162446    2339.1856    120.52586 
 2003000    297.64785   -10177.998            0   -10121.941   -917.35637    32.817902     34.22419    33.184438    2.4080577    2340.4096    119.29571 
 2004000    303.44509   -10177.626            0   -10120.477   -2618.3464    32.817902     34.22419    33.184438    2.6868415    2341.6265     118.0652 
 2005000    304.79305   -10178.895            0   -10121.493   -1451.4852    32.817902     34.22419    33.184438    3.1077609    2342.8553     116.8353 
 2006000    288.50751   -10178.616            0   -10124.281    -1435.453    32.817902     34.22419    33.184438    2.1713507    2344.1135    115.60686 
 2007000    297.71284   -10175.949            0    -10119.88   -2159.9146    32.817902     34.22419    33.184438    2.5368083    2345.2727    114.37355 
 2008000    298.40419   -10178.199            0       -10122   -1625.1458    32.817902     34.22419    33.184438    2.3750162     2346.473     113.1423 
 2009000    299.83414    -10179.69            0   -10123.221   -2527.6851    32.817902     34.22419    33.184438     2.512107     2347.735    111.91403 
 2010000    302.04512   -10177.154            0   -10120.269   -3353.3131    32.817902     34.22419    33.184438    2.1614569    2348.9514    110.68357 
 2011000    297.64496   -10177.755            0   -10121.699   -866.87284    32.817902     34.22419    33.184438    2.0523856    2350.1308    109.45141 
 2012000    290.49011   -10178.017            0   -10123.308   -2317.3314    32.817902     34.22419    33.184438    2.1368486    2351.3209    108.21979 
 2013000    314.41852   -10178.439            0   -10119.223   -2307.9324    32.817902     34.22419    33.184438    2.2382995     2352.487    106.98712 
 2014000     295.6077   -10177.569            0   -10121.896   -1666.4355    32.817902     34.22419    33.184438    2.7442302     2353.747    105.75875 
 2015000     302.3018   -10179.153            0    -10122.22   -880.60298    32.817902     34.22419    33.184438    3.1427156    2354.9768    104.52899 
 2016000    297.39482   -10176.408            0   -10120.399   -1921.5175    32.817902     34.22419    33.184438    2.2345171    2356.2218    103.29991 
 2017000    321.27063   -10178.107            0   -10117.602    -2257.509    32.817902     34.22419    33.184438     2.255505    2357.4044    102.06811 
 2018000    307.22416   -10180.147            0   -10122.287   -1937.2794    32.817902     34.22419    33.184438    2.1600653    2358.6532    100.83919 
 2019000     291.0587   -10176.304            0   -10121.488   -2732.1328    32.817902     34.22419    33.184438    2.2799913    2359.9077    99.610486 
 2020000    307.94844   -10176.878            0   -10118.881   -2486.5549    32.817902     34.22419    33.184438    2.1257185    2361.1161    98.379836 
 2021000    300.91523   -10180.039            0   -10123.367   -2451.7556    32.817902     34.22419    33.184438     2.687411    2362.3058    97.148442 
 2022000    302.59056   -10178.021            0   -10121.034   -2668.6272    32.817902     34.22419    33.184438    2.1495868    2363.4539    95.915402 
 2023000    301.82844    -10175.74            0   -10118.896   -2321.1157    32.817902     34.22419    33.184438    2.7304047    2364.6729    94.685292 
 2024000    293.96161   -10178.957            0   -10123.595   -1822.8582    32.817902     34.22419    33.184438    2.6297919     2365.919    93.456261 
 2025000    301.96054    -10178.29            0   -10121.422   -1750.5445    32.817902     34.22419    33.184438    2.4303855    2367.1668    92.227276 
 2026000    303.90081   -10177.037            0   -10119.803   -1378.9401    32.817902     34.22419    33.184438     2.320364    2368.4471    90.999524 
 2027000    299.55105   -10178.049            0   -10121.634    -1590.774    32.817902     34.22419    33.184438    2.1741587    2369.7508    89.772604 
 2028000    295.55774   -10178.637            0   -10122.974   -2290.7218    32.817902     34.22419    33.184438    2.1632776    2371.0516    88.545494 
 2029000    298.27898   -10177.667            0   -10121.492   -2090.4528    32.817902     34.22419    33.184438    2.1633657    2372.2382    87.314106 
 2030000    296.22719   -10175.624            0   -10119.835   -2013.4804    32.817902     34.22419    33.184438    2.2217421    2373.4549    86.083856 
 2031000    293.24882   -10179.256            0   -10124.028   -2154.0653    32.817902     34.22419    33.184438    2.2675478    2374.7184    84.855292 
 2032000    296.80561    -10177.73            0   -10121.832   -2567.4744    32.817902     34.22419    33.184438    2.2694871    2376.0313    83.628429 
 2033000    300.86633   -10177.989            0   -10121.326   -1759.8815    32.817902     34.22419    33.184438    2.3642833    2377.3372    82.401237 
 2034000    298.52224   -10178.305            0   -10122.083   -1428.1433    32.817902     34.22419    33.184438    2.2093573    2378.6595    81.174522 
 2035000    294.50844   -10179.693            0   -10124.228   -2539.3393    32.817902     34.22419    33.184438    2.0917839    2379.8766    79.944175 
 2036000    307.33557   -10178.221            0   -10120.339   -2599.9712    32.817902     34.22419    33.184438    2.4570509    2381.0327    78.711826 
 2037000    289.67043   -10176.079            0   -10121.525   -1688.6077    32.817902     34.22419    33.184438    2.9860081    2382.2394    77.481199 
 2038000    298.07754   -10181.298            0   -10125.161   -2375.5305    32.817902     34.22419    33.184438    2.4530771    2383.4363    76.250285 
 2039000    304.24824   -10179.205            0   -10121.905   -2214.6598    32.817902     34.22419    33.184438    2.2920555    2384.6327     75.01939 
 2040000    302.91647   -10177.472            0   -10120.423   -2217.9794    32.817902     34.22419    33.184438     2.390226    2385.8322    73.788626 
 2041000    288.06166   -10178.863            0   -10124.612    -2026.026    32.817902     34.22419    33.184438    1.9948027    2387.0439    72.558262 
 2042000    300.06631   -10177.952            0    -10121.44   -2085.4741    32.817902     34.22419    33.184438     2.331142    2388.2349    71.327304 
 2043000    292.52153   -10176.527            0   -10121.436   -1388.1542    32.817902     34.22419    33.184438    2.7589844    2389.4454    70.096957 
 2044000    297.88211   -10179.666            0   -10123.565   -2712.7076    32.817902     34.22419    33.184438     2.283271    2390.6899    68.867611 
 2045000    291.12469   -10177.414            0   -10122.586   -993.07649    32.817902     34.22419    33.184438    2.4396754    2391.8725    67.636497 
 2046000    308.07235   -10178.401            0   -10120.381   -1791.9876    32.817902     34.22419    33.184438    2.4226882    2393.1042    66.406798 
 2047000    302.88302    -10180.61            0   -10123.567   -2684.6603    32.817902     34.22419    33.184438     2.284438    2394.3227    65.176736 
 2048000    293.99611   -10176.885            0   -10121.516   -2290.9319    32.817902     34.22419    33.184438    2.2884276    2395.5816    63.947765 
 2049000    307.58342   -10177.598            0    -10119.67   -1648.4579    32.817902     34.22419    33.184438    1.9743796    2396.8307    62.718505 
 2050000    298.47143   -10179.663            0   -10123.451   -1650.0158    32.817902     34.22419    33.184438    2.4417293    2398.0394    61.488189 
 2051000    313.13826    -10180.86            0   -10121.886   -1448.6626    32.817902     34.22419    33.184438    2.1929041    2399.2496    60.257935 
 2052000    312.98427   -10174.747            0   -10115.802   -1688.6513    32.817902     34.22419    33.184438    2.5188986    2400.4901    59.028445 
 2053000    302.34684   -10175.879            0   -10118.938   -1763.7519    32.817902     34.22419    33.184438    2.3676691    2401.7048    57.798322 
 2054000    293.83878   -10178.267            0   -10122.928   -1898.5521    32.817902     34.22419    33.184438    2.2499259    2402.9144    56.568097 
 2055000    306.90428   -10179.818            0   -10122.018   -2899.2215    32.817902     34.22419    33.184438    2.3749245     2404.155    55.338606 
 2056000    305.05425   -10176.732            0   -10119.281    -1330.498    32.817902     34.22419    33.184438    2.2309501    2405.4016    54.109238 
 2057000    305.92801   -10179.603            0   -10121.987   -2106.4382    32.817902     34.22419    33.184438    2.2937386    2406.6655    52.880233 
 2058000    303.91051   -10179.211            0   -10121.975    -2126.638    32.817902     34.22419    33.184438    2.0939802    2407.9309    51.651224 
 2059000    305.58637    -10176.51            0   -10118.959   -1834.9507    32.817902     34.22419    33.184438    2.4292959    2409.2668    50.423655 
 2060000    299.24843   -10178.144            0   -10121.786   -2676.7178    32.817902     34.22419    33.184438    2.2162962    2410.4997    49.193871 
 2061000     300.3178   -10179.376            0   -10122.816   -2273.7926    32.817902     34.22419    33.184438    2.2459496     2411.756    47.964551 
 2062000    317.81119   -10179.097            0   -10119.243   -2101.2876    32.817902     34.22419    33.184438    2.0408049    2412.9258    46.733527 
 2063000    291.84842   -10177.797            0   -10122.833   -1809.7145    32.817902     34.22419    33.184438    2.3687883    2414.2161    45.504837 
 2064000    302.32376   -10178.739            0   -10121.802   -2173.9379    32.817902     34.22419    33.184438    2.0228345    2415.4943    44.275863 
 2065000    309.05792   -10177.905            0     -10119.7   -1424.1648    32.817902     34.22419    33.184438     2.564659    2416.7828    43.047021 
 2066000    300.72582   -10181.026            0    -10124.39   -1953.1168    32.817902     34.22419    33.184438     2.652864    2418.0659    41.818027 
 2067000    302.17014   -10178.092            0   -10121.183   -1909.9576    32.817902     34.22419    33.184438    3.2076036    2419.3386    40.588801 
 2068000      304.749   -10177.999            0   -10120.605   -2073.8181    32.817902     34.22419    33.184438    2.6249782    2420.5574    39.358656 
 2069000    281.60957   -10179.023            0   -10125.987   -2317.9641    32.817902     34.22419    33.184438     2.076634    2421.7427    38.127996 
 2070000    294.47223   -10177.778            0   -10122.319   -1967.3537    32.817902     34.22419    33.184438    2.2052541     2422.918    36.897228 
 2071000    301.07046   -10176.734            0   -10120.033   -2611.0983    32.817902     34.22419    33.184438    2.4912188    2424.0873    35.666429 
 2072000     290.6543   -10178.042            0   -10123.303   -1946.0095    32.817902     34.22419    33.184438    2.3778989    2425.3173    34.436554 
 2073000    297.95105   -10179.158            0   -10123.044   -719.34671    32.817902     34.22419    33.184438    2.3899138    2426.5006     33.20604 
 2074000    298.19373   -10176.968            0   -10120.808   -2730.9753    32.817902     34.22419    33.184438    2.7004955     2427.782    31.976865 
 2075000    300.55243    -10178.25            0   -10121.646   -2251.4529    32.817902     34.22419    33.184438    2.3744211    2428.9706    30.746463 
 2076000    293.19495   -10180.854            0   -10125.636   -2563.7657    32.817902     34.22419    33.184438     2.364549    2430.1983    29.516578 
 2077000    297.91877   -10178.291            0   -10122.184   -2076.6123    32.817902     34.22419    33.184438    2.1990735    2431.4642     28.28714 
 2078000    300.15292   -10177.531            0   -10121.003   -1767.3996    32.817902     34.22419    33.184438    3.3377975    2432.6502    27.056777 
 2079000    292.59517   -10177.024            0   -10121.919   -2674.7152    32.817902     34.22419    33.184438    2.6823851    2433.8394    25.826492 
 2080000    283.89957   -10177.753            0   -10124.285   -2009.1011    32.817902     34.22419    33.184438    2.1116006     2435.027    24.596232 
 2081000    299.37557   -10176.243            0   -10119.861    -1450.912    32.817902     34.22419    33.184438    2.6871518     2436.249    23.366345 
 2082000    295.82649   -10177.766            0   -10122.052   -1780.0803    32.817902     34.22419    33.184438    2.2719441    2437.4454    22.136235 
 2083000    285.57884   -10180.034            0    -10126.25   -2184.7903    32.817902     34.22419    33.184438     2.102182    2438.6519    20.906244 
 2084000    290.82277    -10177.77            0   -10122.999   -2223.2622    32.817902     34.22419    33.184438    1.9780433    2439.8297    19.676046 
 2085000     306.9314   -10178.441            0   -10120.636   -2366.1434    32.817902     34.22419    33.184438    2.3201457     2441.028    18.446055 
 2086000    301.24842   -10177.201            0   -10120.467   -1814.0121    32.817902     34.22419    33.184438    2.3027857    2442.2571    17.216314 
 2087000    297.56786   -10180.099            0   -10124.057   -1560.8997    32.817902     34.22419    33.184438    2.7510995    2443.4517    15.986347 
 2088000    307.26197   -10177.559            0   -10119.691   -2900.5796    32.817902     34.22419    33.184438    2.5700895    2444.6391    14.756373 
 2089000    307.31277   -10179.032            0   -10121.155   -2709.0765    32.817902     34.22419    33.184438    2.3970428    2445.8723    13.526694 
 2090000    305.97346   -10180.258            0   -10122.633   -2492.6072    32.817902     34.22419    33.184438    2.3153957    2447.1206    12.297089 
 2091000    308.47222   -10176.431            0   -10118.336   -1487.8578    32.817902     34.22419    33.184438    2.7164319    2448.3798    11.067513 
 2092000    301.69829   -10178.818            0   -10121.999   -2202.5674    32.817902     34.22419    33.184438    1.9684329    2449.6691    9.8380283 
 2093000    295.39429   -10177.792            0    -10122.16   -2165.9157    32.817902     34.22419    33.184438    2.1626113    2450.9602    8.6084905 
 2094000    302.02139   -10174.489            0   -10117.608   -2025.7753    32.817902     34.22419    33.184438    2.4274654    2452.1652    7.3786314 
 2095000    299.85818   -10176.255            0   -10119.782   -2841.8887    32.817902     34.22419    33.184438    2.0875925    2453.4172    6.1489154 
 2096000    296.50052   -10177.314            0   -10121.473    -2585.477    32.817902     34.22419    33.184438    2.3308656    2454.6698    4.9191781 
 2097000     302.5625   -10178.516            0   -10121.533   -1862.4223    32.817902     34.22419    33.184438    2.1486449    2455.9551    3.6894669 
 2098000    312.36662   -10178.033            0   -10119.204   -2570.0691    32.817902     34.22419    33.184438    2.2540785    2457.2761    2.4597359 
 2099000     295.3881   -10178.001            0    -10122.37   -2359.0317    32.817902     34.22419    33.184438    2.1933508    2458.5925    1.2299112 
 2100000    289.52038   -10176.337            0   -10121.811   -2849.2758    32.817902     34.22419    33.184438     2.113735    2459.8374            0 
Loop time of 2459.84 on 80 procs for 2000000 steps with 1458 atoms

Performance: 70.249 ns/day, 0.342 hours/ns, 813.062 timesteps/s
99.3% CPU use with 80 MPI tasks x 1 OpenMP threads

MPI task timing breakdown:
Section |  min time  |  avg time  |  max time  |%varavg| %total
---------------------------------------------------------------
Pair    | 196.24     | 245.48     | 295.45     | 139.9 |  9.98
Kspace  | 1164.3     | 1243.2     | 1306       |  81.2 | 50.54
Neigh   | 4.584      | 5.6548     | 6.7422     |  17.8 |  0.23
Comm    | 908.17     | 933.94     | 979.19     |  53.0 | 37.97
Output  | 1.6404     | 1.6414     | 1.6449     |   0.0 |  0.07
Modify  | 17.712     | 19.078     | 20.577     |  14.0 |  0.78
Other   |            | 10.89      |            |       |  0.44

Nlocal:    18.225 ave 23 max 14 min
Histogram: 2 5 8 12 18 17 8 6 2 2
Nghost:    1773.54 ave 1807 max 1747 min
Histogram: 4 5 16 10 13 10 9 7 3 3
Neighs:    4088.44 ave 5330 max 3045 min
Histogram: 3 5 7 16 15 17 7 7 1 2

Total # of neighbors = 327075
Ave neighs/atom = 224.331
Neighbor list builds = 33033
Dangerous builds = 0

# Final Commands
variable final_energy equal etotal
print "final_energy: ${final_energy}"
final_energy: -10121.811419373
print "END_OF_COMP"
END_OF_COMP
Total wall time: 0:43:14
