********************************************************************************
*                       GENERAL UTILITY LATTICE PROGRAM                        *
*                                 Julian Gale                                  *
*                       Curtin Institute for Computation                       *
*                    School of Molecular and Life Sciences                     *
*                    Curtin University, Western Australia                      *
********************************************************************************
* Version = 5.2.0 * Last modified =   1st June 2020                            *
********************************************************************************
*  optimise     - perform optimisation run                                     *
*  conp         - constant pressure calculation                                *
*  compare      - compare initial and final structures                         *
********************************************************************************

  Job Started  at 13:43.58 26th July       2022                               

  Number of CPUs =     1


  Total number of configurations input =      1

********************************************************************************
*  Input for Configuration =   1                                               *
********************************************************************************

  Formula = Li17Sc5Cl32                                                 

  Number of irreducible atoms/shells =      54


  Total number atoms/shells =      54

  Dimensionality = 3               :  Bulk   



  Cartesian lattice vectors (Angstroms) :

       10.403700    0.000000    0.000000
        0.000000   10.403700    0.000000
        0.000000    0.000000   10.403700

  Cell parameters (Angstroms/Degrees):

  a =      10.4037    alpha =  90.0000
  b =      10.4037    beta  =  90.0000
  c =      10.4037    gamma =  90.0000

  Initial cell volume =        1126.065003 Angs**3

  Temperature of configuration =   0.00     K 

  Pressure of configuration =         0.000 GPa 

  Fractional coordinates of asymmetric unit :

--------------------------------------------------------------------------------
   No.  Atomic       x           y          z         Charge      Occupancy
        Label      (Frac)      (Frac)     (Frac)        (e)         (Frac)  
--------------------------------------------------------------------------------
      1 Li    c    0.375000    0.375000    0.875000     1.00000    1.000000    
      2 Li    c    0.250000 *  0.750000 *  0.500000 *   1.00000    1.000000    
      3 Li    c    0.000000 *  0.750000 *  0.750000 *   1.00000    1.000000    
      4 Li    c    0.750000 *  0.500000 *  0.250000 *   1.00000    1.000000    
      5 Li    c    0.500000 *  0.000000 *  0.500000 *   1.00000    1.000000    
      6 Li    c    0.125000 *  0.875000 *  0.125000 *   1.00000    1.000000    
      7 Li    c    0.500000 *  0.500000 *  0.500000 *   1.00000    1.000000    
      8 Li    c    0.500000 *  0.750000 *  0.750000 *   1.00000    1.000000    
      9 Li    c    0.250000 *  0.750000 *  0.000000 *   1.00000    1.000000    
     10 Li    c    0.250000 *  0.250000 *  0.500000 *   1.00000    1.000000    
     11 Li    c    0.750000 *  0.250000 *  0.000000 *   1.00000    1.000000    
     12 Li    c    0.500000 *  0.250000 *  0.250000 *   1.00000    1.000000    
     13 Li    c    0.000000 *  0.750000 *  0.250000 *   1.00000    1.000000    
     14 Li    c    0.750000 *  0.750000 *  0.500000 *   1.00000    1.000000    
     15 Li    c    0.250000 *  0.000000 *  0.750000 *   1.00000    1.000000    
     16 Li    c    0.000000 *  0.500000 *  0.000000 *   1.00000    1.000000    
     17 Li    c    0.000000 *  0.000000 *  0.500000 *   1.00000    1.000000    
     18 Sc    c    0.250000 *  0.500000 *  0.250000 *   3.00000    1.000000    
     19 Sc    c    0.750000 *  0.500000 *  0.750000 *   3.00000    1.000000    
     20 Sc    c    0.000000 *  0.250000 *  0.750000 *   3.00000    1.000000    
     21 Sc    c    0.500000 *  0.000000 *  0.000000 *   3.00000    1.000000    
     22 Sc    c    0.750000 *  0.000000 *  0.250000 *   3.00000    1.000000    
     23 Cl    c    0.250000 *  0.250000 *  0.250000 *  -1.00000    1.000000    
     24 Cl    c    0.750000 *  0.500000 *  0.500000 *  -1.00000    1.000000    
     25 Cl    c    0.500000 *  0.000000 *  0.750000 *  -1.00000    1.000000    
     26 Cl    c    0.000000 *  0.750000 *  0.000000 *  -1.00000    1.000000    
     27 Cl    c    0.250000 *  0.000000 *  0.000000 *  -1.00000    1.000000    
     28 Cl    c    0.750000 *  0.750000 *  0.750000 *  -1.00000    1.000000    
     29 Cl    c    0.500000 *  0.250000 *  0.500000 *  -1.00000    1.000000    
     30 Cl    c    0.000000 *  0.500000 *  0.250000 *  -1.00000    1.000000    
     31 Cl    c    0.500000 *  0.750000 *  0.500000 *  -1.00000    1.000000    
     32 Cl    c    0.750000 *  0.500000 *  0.000000 *  -1.00000    1.000000    
     33 Cl    c    0.000000 *  0.000000 *  0.750000 *  -1.00000    1.000000    
     34 Cl    c    0.000000 *  0.250000 *  0.000000 *  -1.00000    1.000000    
     35 Cl    c    0.500000 *  0.500000 *  0.250000 *  -1.00000    1.000000    
     36 Cl    c    0.250000 *  0.000000 *  0.500000 *  -1.00000    1.000000    
     37 Cl    c    0.250000 *  0.750000 *  0.750000 *  -1.00000    1.000000    
     38 Cl    c    0.500000 *  0.000000 *  0.250000 *  -1.00000    1.000000    
     39 Cl    c    0.750000 *  0.250000 *  0.250000 *  -1.00000    1.000000    
     40 Cl    c    0.000000 *  0.500000 *  0.750000 *  -1.00000    1.000000    
     41 Cl    c    0.250000 *  0.500000 *  0.500000 *  -1.00000    1.000000    
     42 Cl    c    0.750000 *  0.000000 *  0.000000 *  -1.00000    1.000000    
     43 Cl    c    0.250000 *  0.500000 *  0.000000 *  -1.00000    1.000000    
     44 Cl    c    0.000000 *  0.000000 *  0.250000 *  -1.00000    1.000000    
     45 Cl    c    0.500000 *  0.500000 *  0.750000 *  -1.00000    1.000000    
     46 Cl    c    0.750000 *  0.000000 *  0.500000 *  -1.00000    1.000000    
     47 Cl    c    0.000000 *  0.250000 *  0.500000 *  -1.00000    1.000000    
     48 Cl    c    0.500000 *  0.750000 *  0.000000 *  -1.00000    1.000000    
     49 Cl    c    0.500000 *  0.250000 *  0.000000 *  -1.00000    1.000000    
     50 Cl    c    0.000000 *  0.750000 *  0.500000 *  -1.00000    1.000000    
     51 Cl    c    0.750000 *  0.250000 *  0.750000 *  -1.00000    1.000000    
     52 Cl    c    0.250000 *  0.750000 *  0.250000 *  -1.00000    1.000000    
     53 Cl    c    0.750000 *  0.750000 *  0.250000 *  -1.00000    1.000000    
     54 Cl    c    0.250000 *  0.250000 *  0.750000 *  -1.00000    1.000000    
--------------------------------------------------------------------------------



********************************************************************************
*  General input information                                                   *
********************************************************************************

  Species output for all configurations : 

--------------------------------------------------------------------------------
  Species    Type    Atomic    Atomic    Charge       Radii (Angs)     Library
                     Number     Mass       (e)     Cova   Ionic  VDW   Symbol
--------------------------------------------------------------------------------
    Li       Core        3       6.94   1.000000   0.680  0.000  1.800          
    Sc       Core       21      44.96   3.000000   1.440  0.000  2.150          
    Cl       Core       17      35.45  -1.000000   0.990  0.000  1.650          
--------------------------------------------------------------------------------


  Lattice summation method               =    Ewald          (3-D)
                                         =    Parry          (2-D)
                                         =    Saunders et al (1-D)
  Accuracy factor for lattice sums       =   12.000


  Analytic derivatives to be used

  Time limit = Infinity

  Maximum range for interatomic potentials =    100000.000000 Angstroms

  General interatomic potentials :

--------------------------------------------------------------------------------
Atom  Types   Potential      Parameter       Value         Units   Cutoffs(Ang)
  1     2                                                            Min /  Max 
--------------------------------------------------------------------------------
Li   c Li   c Buckingham    Buckingham A     360.53000    eV        0.000 12.000
                            Buckingham rho  0.16100000    Ang       
                            Buckingham C     0.0000000    eV*Ang^6  
--------------------------------------------------------------------------------
Li   c Cl   c Buckingham    Buckingham A     220.00000    eV        0.000 12.000
                            Buckingham rho  0.34000000    Ang       
                            Buckingham C     0.0000000    eV*Ang^6  
--------------------------------------------------------------------------------
Cl   c Sc   c Buckingham    Buckingham A     26156.480    eV        0.000 12.000
                            Buckingham rho  0.24990000    Ang       
                            Buckingham C     0.0000000    eV*Ang^6  
--------------------------------------------------------------------------------
Cl   c Cl   c Buckingham    Buckingham A     1227.2000    eV        0.000 12.000
                            Buckingham rho  0.32100000    Ang       
                            Buckingham C     14.530000    eV*Ang^6  
--------------------------------------------------------------------------------

********************************************************************************
*  Output for configuration   1                                                *
********************************************************************************


  Components of energy : 

--------------------------------------------------------------------------------
  Interatomic potentials     =          36.69755104 eV    
  Monopole - monopole (real) =        -210.04463653 eV    
  Monopole - monopole (recip)=        -180.22932020 eV    
  Monopole - monopole (total)=        -390.27395673 eV    
--------------------------------------------------------------------------------
  Total lattice energy       =        -353.57640569 eV    
--------------------------------------------------------------------------------
  Total lattice energy       =          -34114.7182 kJ/(mole unit cells)
--------------------------------------------------------------------------------


  Number of variables =      165

  Maximum number of calculations  =          1000
  Maximum Hessian update interval =            10
  Maximum step size               =   1.000000000
  Maximum parameter tolerance     =   0.000010000
  Maximum function  tolerance     =   0.000010000
  Maximum gradient  tolerance     =   0.001000000
  Maximum gradient  component     =   0.010000000

  Symmetry not applied to optimisation

  Cell parameters to be optimised using strains

  Newton-Raphson optimiser to be used

  BFGS hessian update to be used

  Lower half triangular hessian to be used

  Start of bulk optimisation :

  Cycle:      0 Energy:      -353.576406  Gnorm:      0.948738  CPU:    0.052
  ** Hessian calculated **
  Cycle:      1 Energy:      -365.275968  Gnorm:      0.503091  CPU:    0.081
  ** Hessian calculated **
  Cycle:      2 Energy:      -368.656941  Gnorm:      0.355521  CPU:    0.131
  Cycle:      3 Energy:      -370.432777  Gnorm:      0.245380  CPU:    0.159
  Cycle:      4 Energy:      -371.585928  Gnorm:      0.203313  CPU:    0.204
  Cycle:      5 Energy:      -372.513023  Gnorm:      0.177747  CPU:    0.263
  Cycle:      6 Energy:      -373.169306  Gnorm:      0.157757  CPU:    0.290
  Cycle:      7 Energy:      -373.531681  Gnorm:      0.139552  CPU:    0.312
  Cycle:      8 Energy:      -373.846271  Gnorm:      0.115377  CPU:    0.339
  Cycle:      9 Energy:      -374.088790  Gnorm:      0.109942  CPU:    0.366
  Cycle:     10 Energy:      -374.278659  Gnorm:      0.094413  CPU:    0.393
  Cycle:     11 Energy:      -374.485215  Gnorm:      0.107709  CPU:    0.419
  ** Hessian calculated **
  Cycle:     12 Energy:      -374.654033  Gnorm:      0.072359  CPU:    0.462
  Cycle:     13 Energy:      -374.826510  Gnorm:      0.095773  CPU:    0.489
  Cycle:     14 Energy:      -375.062652  Gnorm:      0.106847  CPU:    0.516
  Cycle:     15 Energy:      -375.452953  Gnorm:      0.119671  CPU:    0.543
  Cycle:     16 Energy:      -375.981638  Gnorm:      0.142280  CPU:    0.571
  Cycle:     17 Energy:      -376.356535  Gnorm:      0.123396  CPU:    0.594
  Cycle:     18 Energy:      -376.690474  Gnorm:      0.093991  CPU:    0.616
  Cycle:     19 Energy:      -376.885223  Gnorm:      0.087867  CPU:    0.638
  Cycle:     20 Energy:      -377.041976  Gnorm:      0.083294  CPU:    0.665
  Cycle:     21 Energy:      -377.209780  Gnorm:      0.099865  CPU:    0.692
  ** Hessian calculated **
  Cycle:     22 Energy:      -377.359542  Gnorm:      0.086657  CPU:    0.734
  Cycle:     23 Energy:      -377.488004  Gnorm:      0.075824  CPU:    0.761
  Cycle:     24 Energy:      -377.613084  Gnorm:      0.073933  CPU:    0.788
  Cycle:     25 Energy:      -377.726712  Gnorm:      0.067567  CPU:    0.815
  Cycle:     26 Energy:      -377.835372  Gnorm:      0.061742  CPU:    0.842
  Cycle:     27 Energy:      -377.922754  Gnorm:      0.056639  CPU:    0.868
  Cycle:     28 Energy:      -378.012259  Gnorm:      0.057426  CPU:    0.895
  Cycle:     29 Energy:      -378.089565  Gnorm:      0.052550  CPU:    0.922
  Cycle:     30 Energy:      -378.166600  Gnorm:      0.050578  CPU:    0.944
  Cycle:     31 Energy:      -378.225428  Gnorm:      0.037684  CPU:    0.966
  ** Hessian calculated **
  Cycle:     32 Energy:      -378.250212  Gnorm:      0.029009  CPU:    1.008
  Cycle:     33 Energy:      -378.271011  Gnorm:      0.030551  CPU:    1.035
  Cycle:     34 Energy:      -378.290681  Gnorm:      0.032605  CPU:    1.062
  Cycle:     35 Energy:      -378.313746  Gnorm:      0.031407  CPU:    1.089
  Cycle:     36 Energy:      -378.340403  Gnorm:      0.032224  CPU:    1.118
  Cycle:     37 Energy:      -378.364740  Gnorm:      0.031005  CPU:    1.142
  Cycle:     38 Energy:      -378.386441  Gnorm:      0.034659  CPU:    1.164
  Cycle:     39 Energy:      -378.405651  Gnorm:      0.028152  CPU:    1.188
  Cycle:     40 Energy:      -378.425052  Gnorm:      0.024732  CPU:    1.215
  Cycle:     41 Energy:      -378.438833  Gnorm:      0.022256  CPU:    1.237
  ** Hessian calculated **
  Cycle:     42 Energy:      -378.476257  Gnorm:      0.010218  CPU:    1.294
  Cycle:     43 Energy:      -378.482581  Gnorm:      0.002995  CPU:    1.316
  Cycle:     44 Energy:      -378.483495  Gnorm:      0.002369  CPU:    1.338
  Cycle:     45 Energy:      -378.483855  Gnorm:      0.001390  CPU:    1.360
  Cycle:     46 Energy:      -378.484437  Gnorm:      0.002637  CPU:    1.391
  Cycle:     47 Energy:      -378.491383  Gnorm:      0.018793  CPU:    1.433
  Cycle:     48 Energy:      -378.491523  Gnorm:      0.020691  CPU:    1.464
  Cycle:     49 Energy:      -378.496588  Gnorm:      0.025645  CPU:    1.501
  Cycle:     50 Energy:      -378.506509  Gnorm:      0.028601  CPU:    1.532
  Cycle:     51 Energy:      -378.520711  Gnorm:      0.028364  CPU:    1.564
  ** Hessian calculated **
  Cycle:     52 Energy:      -378.551828  Gnorm:      0.011936  CPU:    1.612
  Cycle:     53 Energy:      -378.556643  Gnorm:      0.002879  CPU:    1.639
  Cycle:     54 Energy:      -378.558315  Gnorm:      0.002405  CPU:    1.666
  Cycle:     55 Energy:      -378.558758  Gnorm:      0.000997  CPU:    1.688
  Cycle:     56 Energy:      -378.558946  Gnorm:      0.000720  CPU:    1.709
  Cycle:     57 Energy:      -378.558985  Gnorm:      0.000254  CPU:    1.731
  Cycle:     58 Energy:      -378.558988  Gnorm:      0.000216  CPU:    1.758
  Cycle:     59 Energy:      -378.558988  Gnorm:      0.000209  CPU:    1.788
  Cycle:     60 Energy:      -378.558998  Gnorm:      0.000031  CPU:    1.815


  **** Optimisation achieved ****


  Final energy =    -378.55899846 eV
  Final Gnorm  =       0.00003119

  Components of energy : 

--------------------------------------------------------------------------------
  Interatomic potentials     =          50.75177425 eV    
  Monopole - monopole (real) =        -249.02709184 eV    
  Monopole - monopole (recip)=        -180.28368086 eV    
  Monopole - monopole (total)=        -429.31077270 eV    
--------------------------------------------------------------------------------
  Total lattice energy       =        -378.55899846 eV    
--------------------------------------------------------------------------------
  Total lattice energy       =          -36525.1565 kJ/(mole unit cells)
--------------------------------------------------------------------------------

  Final fractional coordinates of atoms :

--------------------------------------------------------------------------------
   No.  Atomic        x           y          z          Radius
        Label       (Frac)      (Frac)     (Frac)       (Angs) 
--------------------------------------------------------------------------------
     1  Li    c     0.375000    0.375000    0.875000    0.000000
     2  Li    c     0.090743    0.649302    0.626590    0.000000
     3  Li    c     0.960893    0.891578    0.857761    0.000000
     4  Li    c     0.619020    0.685348    0.377511    0.000000
     5  Li    c     0.617796    0.183423    0.632813    0.000000
     6  Li    c     0.167293    0.889256    0.114465    0.000000
     7  Li    c     0.370048    0.359810    0.585072    0.000000
     8  Li    c     0.388800    0.653268    0.614552    0.000000
     9  Li    c     0.249721    0.706272    0.911289    0.000000
    10  Li    c     0.392620    0.108433    0.379906    0.000000
    11  Li    c     0.859865    0.362959    0.084508    0.000000
    12  Li    c     0.639452    0.384996    0.363196    0.000000
    13  Li    c     0.905007    0.631189    0.379648    0.000000
    14  Li    c     0.667231    0.905103    0.642152    0.000000
    15  Li    c     0.237665    0.943715    0.675549    0.000000
    16  Li    c     0.945789    0.638862    0.064310    0.000000
    17  Li    c     0.169304    0.862806    0.386274    0.000000
    18  Sc    c     0.271401    0.488112    0.237499    0.000000
    19  Sc    c     0.713712    0.579185    0.745617    0.000000
    20  Sc    c     0.000037    0.256329    0.712416    0.000000
    21  Sc    c     0.537367    0.000696    0.994583    0.000000
    22  Sc    c     0.825186    0.040833    0.303761    0.000000
    23  Cl    c     0.299488    0.244256    0.279511    0.000000
    24  Cl    c     0.755436    0.532008    0.489237    0.000000
    25  Cl    c     0.563130    0.042403    0.757199    0.000000
    26  Cl    c     0.049024    0.766115    0.977833    0.000000
    27  Cl    c     0.312172    0.905823    0.992108    0.000000
    28  Cl    c     0.823403    0.810036    0.742254    0.000000
    29  Cl    c     0.519510    0.266565    0.490146    0.000000
    30  Cl    c     0.023134    0.523331    0.209786    0.000000
    31  Cl    c     0.568421    0.726680    0.585856    0.000000
    32  Cl    c     0.807768    0.535575    0.972727    0.000000
    33  Cl    c     0.067600    0.017433    0.750305    0.000000
    34  Cl    c     0.972999    0.274317    0.955904    0.000000
    35  Cl    c     0.512528    0.530855    0.295018    0.000000
    36  Cl    c     0.289504    0.982422    0.499821    0.000000
    37  Cl    c     0.248399    0.740328    0.716972    0.000000
    38  Cl    c     0.571636    0.020386    0.242032    0.000000
    39  Cl    c     0.765875    0.278304    0.236536    0.000000
    40  Cl    c     0.968991    0.513098    0.702513    0.000000
    41  Cl    c     0.280086    0.512602    0.489065    0.000000
    42  Cl    c     0.779081    0.002274    0.053946    0.000000
    43  Cl    c     0.282547    0.521354    0.994186    0.000000
    44  Cl    c     0.049946    0.955715    0.248660    0.000000
    45  Cl    c     0.482700    0.480405    0.729659    0.000000
    46  Cl    c     0.730988    0.036685    0.530425    0.000000
    47  Cl    c     0.963201    0.188267    0.473874    0.000000
    48  Cl    c     0.585059    0.760292    0.897004    0.000000
    49  Cl    c     0.455179    0.240735    0.984758    0.000000
    50  Cl    c     0.048463    0.727783    0.468843    0.000000
    51  Cl    c     0.756670    0.316961    0.719854    0.000000
    52  Cl    c     0.262833    0.744120    0.243179    0.000000
    53  Cl    c     0.777706    0.783555    0.312264    0.000000
    54  Cl    c     0.241747    0.298309    0.714625    0.000000
--------------------------------------------------------------------------------

  Final Cartesian lattice vectors (Angstroms) :

       10.586422    0.006870   -0.041628
        0.003536   10.217402   -0.341653
       -0.047026   -0.344774   10.564383


  Final cell parameters and derivatives :

--------------------------------------------------------------------------------
       a           10.586506 Angstrom     dE/de1(xx)     0.000532 eV/strain
       b           10.223113 Angstrom     dE/de2(yy)     0.000660 eV/strain
       c           10.570112 Angstrom     dE/de3(zz)     0.000257 eV/strain
       alpha       93.784430 Degrees      dE/de4(yz)     0.000542 eV/strain
       beta        90.481298 Degrees      dE/de5(xz)     0.000005 eV/strain
       gamma       89.935494 Degrees      dE/de6(xy)    -0.000147 eV/strain
--------------------------------------------------------------------------------

  Primitive cell volume =          1141.437029 Angs**3

  Density of cell =      2.149005 g/cm**3

  Non-primitive cell volume =          1141.437029 Angs**3


  Final internal derivatives :

--------------------------------------------------------------------------------
   No.  Atomic          a             b             c           Radius
        Label          (eV)          (eV)          (eV)        (eV/Angs)
--------------------------------------------------------------------------------
      1 Li    c       0.000000      0.000000      0.000000      0.000000
      2 Li    c       0.001026      0.000482     -0.001383      0.000000
      3 Li    c      -0.000109      0.000685     -0.000134      0.000000
      4 Li    c       0.000100     -0.000043      0.000116      0.000000
      5 Li    c      -0.000001     -0.000108      0.000032      0.000000
      6 Li    c       0.000079      0.000040      0.000404      0.000000
      7 Li    c      -0.000148      0.000036      0.000008      0.000000
      8 Li    c       0.000483     -0.001708      0.000408      0.000000
      9 Li    c       0.000095      0.000379     -0.000366      0.000000
     10 Li    c       0.000078      0.000062      0.000090      0.000000
     11 Li    c      -0.000015     -0.000286      0.000131      0.000000
     12 Li    c       0.000001     -0.000051      0.000001      0.000000
     13 Li    c      -0.000852     -0.000142     -0.000178      0.000000
     14 Li    c      -0.000067      0.000120      0.000023      0.000000
     15 Li    c       0.000106     -0.000010     -0.000193      0.000000
     16 Li    c      -0.000013     -0.000094      0.000496      0.000000
     17 Li    c       0.000087      0.000164     -0.000134      0.000000
     18 Sc    c      -0.000322      0.000280      0.000939      0.000000
     19 Sc    c       0.000565     -0.000704     -0.000981      0.000000
     20 Sc    c       0.000259     -0.000307     -0.000451      0.000000
     21 Sc    c      -0.000434     -0.000197      0.000222      0.000000
     22 Sc    c      -0.000365     -0.000162     -0.000243      0.000000
     23 Cl    c      -0.000147     -0.000799      0.000070      0.000000
     24 Cl    c       0.000196      0.000070      0.000006      0.000000
     25 Cl    c       0.000176     -0.000126     -0.000341      0.000000
     26 Cl    c       0.000224     -0.000026     -0.000210      0.000000
     27 Cl    c       0.000186      0.000028     -0.000252      0.000000
     28 Cl    c      -0.000124     -0.000013      0.000199      0.000000
     29 Cl    c       0.000217     -0.000152     -0.000118      0.000000
     30 Cl    c      -0.000295      0.000260      0.000126      0.000000
     31 Cl    c      -0.000089      0.000046     -0.000563      0.000000
     32 Cl    c       0.000147      0.000058      0.000147      0.000000
     33 Cl    c      -0.000414     -0.000181      0.000424      0.000000
     34 Cl    c       0.000131     -0.000069     -0.000141      0.000000
     35 Cl    c       0.000201      0.000231     -0.000182      0.000000
     36 Cl    c      -0.000210     -0.000059      0.000107      0.000000
     37 Cl    c      -0.000151      0.000028      0.000721      0.000000
     38 Cl    c      -0.000135     -0.000008      0.000195      0.000000
     39 Cl    c       0.000126      0.000229     -0.000157      0.000000
     40 Cl    c       0.000119     -0.000265      0.000057      0.000000
     41 Cl    c       0.000382      0.000764     -0.000396      0.000000
     42 Cl    c      -0.000055      0.000036      0.000272      0.000000
     43 Cl    c       0.000163      0.000105     -0.000565      0.000000
     44 Cl    c       0.000312     -0.000000     -0.000238      0.000000
     45 Cl    c      -0.001373      0.000184      0.000539      0.000000
     46 Cl    c      -0.000050      0.000020      0.000021      0.000000
     47 Cl    c      -0.000047      0.000023      0.000233      0.000000
     48 Cl    c      -0.001063      0.001189      0.000868      0.000000
     49 Cl    c       0.000169     -0.000305     -0.000229      0.000000
     50 Cl    c       0.000508     -0.000449      0.001353      0.000000
     51 Cl    c       0.000090     -0.000063      0.000073      0.000000
     52 Cl    c      -0.000209      0.000067      0.000295      0.000000
     53 Cl    c      -0.000203      0.000156     -0.000040      0.000000
     54 Cl    c       0.000034     -0.000130     -0.000011      0.000000
--------------------------------------------------------------------------------
  Maximum abs         0.001373      0.001708      0.001383      0.000000
--------------------------------------------------------------------------------

  Comparison of initial and final structures : 

--------------------------------------------------------------------------------
  Parameter   Initial value   Final value   Difference    Units      Percent
--------------------------------------------------------------------------------
    Volume      1126.065003   1141.437029    15.372026    Angs**3      1.37
    a             10.403700     10.586506     0.182806    Angstroms    1.76
    b             10.403700     10.223113    -0.180587    Angstroms   -1.74
    c             10.403700     10.570112     0.166412    Angstroms    1.60
    alpha         90.000000     93.784430     3.784430    Degrees      4.20
    beta          90.000000     90.481298     0.481298    Degrees      0.53
    gamma         90.000000     89.935494    -0.064506    Degrees     -0.07
      1 x          0.375000      0.375000     0.000000    Fractional   0.00
      1 y          0.375000      0.375000     0.000000    Fractional   0.00
      1 z          0.875000      0.875000     0.000000    Fractional   0.00
      2 x          0.250000      0.090743     0.159257    Fractional  63.70
      2 y          0.750000      0.649302     0.100698    Fractional  13.43
      2 z          0.500000      0.626590     0.126590    Fractional  25.32
      3 x          0.000000      0.960893     0.960893    Fractional   0.00
      3 y          0.750000      0.891578     0.141578    Fractional  18.88
      3 z          0.750000      0.857761     0.107761    Fractional  14.37
      4 x          0.750000      0.619020     0.130980    Fractional  17.46
      4 y          0.500000      0.685348     0.185348    Fractional  37.07
      4 z          0.250000      0.377511     0.127511    Fractional  51.00
      5 x          0.500000      0.617796     0.117796    Fractional  23.56
      5 y          0.000000      0.183423     0.183423    Fractional   0.00
      5 z          0.500000      0.632813     0.132813    Fractional  26.56
      6 x          0.125000      0.167293     0.042293    Fractional  33.83
      6 y          0.875000      0.889256     0.014256    Fractional   1.63
      6 z          0.125000      0.114465     0.010535    Fractional   8.43
      7 x          0.500000      0.370048     0.129952    Fractional  25.99
      7 y          0.500000      0.359810     0.140190    Fractional  28.04
      7 z          0.500000      0.585072     0.085072    Fractional  17.01
      8 x          0.500000      0.388800     0.111200    Fractional  22.24
      8 y          0.750000      0.653268     0.096732    Fractional  12.90
      8 z          0.750000      0.614552     0.135448    Fractional  18.06
      9 x          0.250000      0.249721     0.000279    Fractional   0.11
      9 y          0.750000      0.706272     0.043728    Fractional   5.83
      9 z          0.000000      0.911289     0.911289    Fractional   0.00
     10 x          0.250000      0.392620     0.142620    Fractional  57.05
     10 y          0.250000      0.108433     0.141567    Fractional  56.63
     10 z          0.500000      0.379906     0.120094    Fractional  24.02
     11 x          0.750000      0.859865     0.109865    Fractional  14.65
     11 y          0.250000      0.362959     0.112959    Fractional  45.18
     11 z          0.000000      0.084508     0.084508    Fractional   0.00
     12 x          0.500000      0.639452     0.139452    Fractional  27.89
     12 y          0.250000      0.384996     0.134996    Fractional  54.00
     12 z          0.250000      0.363196     0.113196    Fractional  45.28
     13 x          0.000000      0.905007     0.905007    Fractional   0.00
     13 y          0.750000      0.631189     0.118811    Fractional  15.84
     13 z          0.250000      0.379648     0.129648    Fractional  51.86
     14 x          0.750000      0.667231     0.082769    Fractional  11.04
     14 y          0.750000      0.905103     0.155103    Fractional  20.68
     14 z          0.500000      0.642152     0.142152    Fractional  28.43
     15 x          0.250000      0.237665     0.012335    Fractional   4.93
     15 y          0.000000      0.943715     0.943715    Fractional   0.00
     15 z          0.750000      0.675549     0.074451    Fractional   9.93
     16 x          0.000000      0.945789     0.945789    Fractional   0.00
     16 y          0.500000      0.638862     0.138862    Fractional  27.77
     16 z          0.000000      0.064310     0.064310    Fractional   0.00
     17 x          0.000000      0.169304     0.169304    Fractional   0.00
     17 y          0.000000      0.862806     0.862806    Fractional   0.00
     17 z          0.500000      0.386274     0.113726    Fractional  22.75
     18 x          0.250000      0.271401     0.021401    Fractional   8.56
     18 y          0.500000      0.488112     0.011888    Fractional   2.38
     18 z          0.250000      0.237499     0.012501    Fractional   5.00
     19 x          0.750000      0.713712     0.036288    Fractional   4.84
     19 y          0.500000      0.579185     0.079185    Fractional  15.84
     19 z          0.750000      0.745617     0.004383    Fractional   0.58
     20 x          0.000000      0.000037     0.000037    Fractional   0.00
     20 y          0.250000      0.256329     0.006329    Fractional   2.53
     20 z          0.750000      0.712416     0.037584    Fractional   5.01
     21 x          0.500000      0.537367     0.037367    Fractional   7.47
     21 y          0.000000      0.000696     0.000696    Fractional   0.00
     21 z          0.000000      0.994583     0.994583    Fractional   0.00
     22 x          0.750000      0.825186     0.075186    Fractional  10.02
     22 y          0.000000      0.040833     0.040833    Fractional   0.00
     22 z          0.250000      0.303761     0.053761    Fractional  21.50
     23 x          0.250000      0.299488     0.049488    Fractional  19.80
     23 y          0.250000      0.244256     0.005744    Fractional   2.30
     23 z          0.250000      0.279511     0.029511    Fractional  11.80
     24 x          0.750000      0.755436     0.005436    Fractional   0.72
     24 y          0.500000      0.532008     0.032008    Fractional   6.40
     24 z          0.500000      0.489237     0.010763    Fractional   2.15
     25 x          0.500000      0.563130     0.063130    Fractional  12.63
     25 y          0.000000      0.042403     0.042403    Fractional   0.00
     25 z          0.750000      0.757199     0.007199    Fractional   0.96
     26 x          0.000000      0.049024     0.049024    Fractional   0.00
     26 y          0.750000      0.766115     0.016115    Fractional   2.15
     26 z          0.000000      0.977833     0.977833    Fractional   0.00
     27 x          0.250000      0.312172     0.062172    Fractional  24.87
     27 y          0.000000      0.905823     0.905823    Fractional   0.00
     27 z          0.000000      0.992108     0.992108    Fractional   0.00
     28 x          0.750000      0.823403     0.073403    Fractional   9.79
     28 y          0.750000      0.810036     0.060036    Fractional   8.00
     28 z          0.750000      0.742254     0.007746    Fractional   1.03
     29 x          0.500000      0.519510     0.019510    Fractional   3.90
     29 y          0.250000      0.266565     0.016565    Fractional   6.63
     29 z          0.500000      0.490146     0.009854    Fractional   1.97
     30 x          0.000000      0.023134     0.023134    Fractional   0.00
     30 y          0.500000      0.523331     0.023331    Fractional   4.67
     30 z          0.250000      0.209786     0.040214    Fractional  16.09
     31 x          0.500000      0.568421     0.068421    Fractional  13.68
     31 y          0.750000      0.726680     0.023320    Fractional   3.11
     31 z          0.500000      0.585856     0.085856    Fractional  17.17
     32 x          0.750000      0.807768     0.057768    Fractional   7.70
     32 y          0.500000      0.535575     0.035575    Fractional   7.12
     32 z          0.000000      0.972727     0.972727    Fractional   0.00
     33 x          0.000000      0.067600     0.067600    Fractional   0.00
     33 y          0.000000      0.017433     0.017433    Fractional   0.00
     33 z          0.750000      0.750305     0.000305    Fractional   0.04
     34 x          0.000000      0.972999     0.972999    Fractional   0.00
     34 y          0.250000      0.274317     0.024317    Fractional   9.73
     34 z          0.000000      0.955904     0.955904    Fractional   0.00
     35 x          0.500000      0.512528     0.012528    Fractional   2.51
     35 y          0.500000      0.530855     0.030855    Fractional   6.17
     35 z          0.250000      0.295018     0.045018    Fractional  18.01
     36 x          0.250000      0.289504     0.039504    Fractional  15.80
     36 y          0.000000      0.982422     0.982422    Fractional   0.00
     36 z          0.500000      0.499821     0.000179    Fractional   0.04
     37 x          0.250000      0.248399     0.001601    Fractional   0.64
     37 y          0.750000      0.740328     0.009672    Fractional   1.29
     37 z          0.750000      0.716972     0.033028    Fractional   4.40
     38 x          0.500000      0.571636     0.071636    Fractional  14.33
     38 y          0.000000      0.020386     0.020386    Fractional   0.00
     38 z          0.250000      0.242032     0.007968    Fractional   3.19
     39 x          0.750000      0.765875     0.015875    Fractional   2.12
     39 y          0.250000      0.278304     0.028304    Fractional  11.32
     39 z          0.250000      0.236536     0.013464    Fractional   5.39
     40 x          0.000000      0.968991     0.968991    Fractional   0.00
     40 y          0.500000      0.513098     0.013098    Fractional   2.62
     40 z          0.750000      0.702513     0.047487    Fractional   6.33
     41 x          0.250000      0.280086     0.030086    Fractional  12.03
     41 y          0.500000      0.512602     0.012602    Fractional   2.52
     41 z          0.500000      0.489065     0.010935    Fractional   2.19
     42 x          0.750000      0.779081     0.029081    Fractional   3.88
     42 y          0.000000      0.002274     0.002274    Fractional   0.00
     42 z          0.000000      0.053946     0.053946    Fractional   0.00
     43 x          0.250000      0.282547     0.032547    Fractional  13.02
     43 y          0.500000      0.521354     0.021354    Fractional   4.27
     43 z          0.000000      0.994186     0.994186    Fractional   0.00
     44 x          0.000000      0.049946     0.049946    Fractional   0.00
     44 y          0.000000      0.955715     0.955715    Fractional   0.00
     44 z          0.250000      0.248660     0.001340    Fractional   0.54
     45 x          0.500000      0.482700     0.017300    Fractional   3.46
     45 y          0.500000      0.480405     0.019595    Fractional   3.92
     45 z          0.750000      0.729659     0.020341    Fractional   2.71
     46 x          0.750000      0.730988     0.019012    Fractional   2.53
     46 y          0.000000      0.036685     0.036685    Fractional   0.00
     46 z          0.500000      0.530425     0.030425    Fractional   6.08
     47 x          0.000000      0.963201     0.963201    Fractional   0.00
     47 y          0.250000      0.188267     0.061733    Fractional  24.69
     47 z          0.500000      0.473874     0.026126    Fractional   5.23
     48 x          0.500000      0.585059     0.085059    Fractional  17.01
     48 y          0.750000      0.760292     0.010292    Fractional   1.37
     48 z          0.000000      0.897004     0.897004    Fractional   0.00
     49 x          0.500000      0.455179     0.044821    Fractional   8.96
     49 y          0.250000      0.240735     0.009265    Fractional   3.71
     49 z          0.000000      0.984758     0.984758    Fractional   0.00
     50 x          0.000000      0.048463     0.048463    Fractional   0.00
     50 y          0.750000      0.727783     0.022217    Fractional   2.96
     50 z          0.500000      0.468843     0.031157    Fractional   6.23
     51 x          0.750000      0.756670     0.006670    Fractional   0.89
     51 y          0.250000      0.316961     0.066961    Fractional  26.78
     51 z          0.750000      0.719854     0.030146    Fractional   4.02
     52 x          0.250000      0.262833     0.012833    Fractional   5.13
     52 y          0.750000      0.744120     0.005880    Fractional   0.78
     52 z          0.250000      0.243179     0.006821    Fractional   2.73
     53 x          0.750000      0.777706     0.027706    Fractional   3.69
     53 y          0.750000      0.783555     0.033555    Fractional   4.47
     53 z          0.250000      0.312264     0.062264    Fractional  24.91
     54 x          0.250000      0.241747     0.008253    Fractional   3.30
     54 y          0.250000      0.298309     0.048309    Fractional  19.32
     54 z          0.750000      0.714625     0.035375    Fractional   4.72
--------------------------------------------------------------------------------


  Time to end of optimisation =       1.8519 seconds


  Peak dynamic memory used =       2.50 MB 


  Timing analysis for GULP :

--------------------------------------------------------------------------------
  Task / Subroutine                                          Time (Seconds)
--------------------------------------------------------------------------------
  Calculation of reciprocal space energy and derivatives          0.1227
  Calculation of real space energy and derivatives                1.7010
  Calculation and manipulation of Hessian matrix                  0.0005
  Calculation of matrix inversion                                 0.0072
  Symmetry generation of equivalent positions                     0.0004
  Global summation overhead                                       0.0001
--------------------------------------------------------------------------------
  Total CPU time                                                  1.8520
--------------------------------------------------------------------------------


  Dump file written as halospinel.grs


  Job Finished at 13:44.00 26th July       2022                               

