********************************************************************************
*                       GENERAL UTILITY LATTICE PROGRAM                        *
*                                 Julian Gale                                  *
*                       Curtin Institute for Computation                       *
*                    School of Molecular and Life Sciences                     *
*                    Curtin University, Western Australia                      *
********************************************************************************
* Version = 5.2.0 * Last modified =   1st June 2020                            *
********************************************************************************
*  optimise     - perform optimisation run                                     *
*  conp         - constant pressure calculation                                *
*  compare      - compare initial and final structures                         *
********************************************************************************

  Job Started  at 14:49.33  4th March      2022                               

  Number of CPUs =     1


  Total number of configurations input =      1

********************************************************************************
*  Input for Configuration =   1                                               *
********************************************************************************

  Formula = Li17Sc5Cl32                                                 

  Number of irreducible atoms/shells =      86


  Total number atoms/shells =      86

  Dimensionality = 3               :  Bulk   



  Cartesian lattice vectors (Angstroms) :

       10.403700    0.000000    0.000000
        0.000000   10.403700    0.000000
        0.000000    0.000000   10.403700

  Cell parameters (Angstroms/Degrees):

  a =      10.4037    alpha =  90.0000
  b =      10.4037    beta  =  90.0000
  c =      10.4037    gamma =  90.0000

  Initial cell volume =        1126.065003 Angs**3

  Temperature of configuration =   0.00     K 

  Pressure of configuration =         0.000 GPa 

  Fractional coordinates of asymmetric unit :

--------------------------------------------------------------------------------
   No.  Atomic       x           y          z         Charge      Occupancy
        Label      (Frac)      (Frac)     (Frac)        (e)         (Frac)  
--------------------------------------------------------------------------------
      1 Li    c    0.375000    0.375000    0.875000     1.00000    1.000000    
      2 Li    c    0.250000 *  0.750000 *  0.500000 *   1.00000    1.000000    
      3 Li    c    0.000000 *  0.750000 *  0.750000 *   1.00000    1.000000    
      4 Li    c    0.750000 *  0.500000 *  0.250000 *   1.00000    1.000000    
      5 Li    c    0.500000 *  0.000000 *  0.500000 *   1.00000    1.000000    
      6 Li    c    0.125000 *  0.875000 *  0.125000 *   1.00000    1.000000    
      7 Li    c    0.500000 *  0.500000 *  0.500000 *   1.00000    1.000000    
      8 Li    c    0.500000 *  0.750000 *  0.750000 *   1.00000    1.000000    
      9 Li    c    0.250000 *  0.750000 *  0.000000 *   1.00000    1.000000    
     10 Li    c    0.250000 *  0.250000 *  0.500000 *   1.00000    1.000000    
     11 Li    c    0.750000 *  0.250000 *  0.000000 *   1.00000    1.000000    
     12 Li    c    0.500000 *  0.250000 *  0.250000 *   1.00000    1.000000    
     13 Li    c    0.000000 *  0.750000 *  0.250000 *   1.00000    1.000000    
     14 Li    c    0.750000 *  0.750000 *  0.500000 *   1.00000    1.000000    
     15 Li    c    0.250000 *  0.000000 *  0.750000 *   1.00000    1.000000    
     16 Li    c    0.000000 *  0.500000 *  0.000000 *   1.00000    1.000000    
     17 Li    c    0.000000 *  0.000000 *  0.500000 *   1.00000    1.000000    
     18 Sc    c    0.250000 *  0.500000 *  0.250000 *   3.00000    1.000000    
     19 Sc    c    0.750000 *  0.500000 *  0.750000 *   3.00000    1.000000    
     20 Sc    c    0.000000 *  0.250000 *  0.750000 *   3.00000    1.000000    
     21 Sc    c    0.500000 *  0.000000 *  0.000000 *   3.00000    1.000000    
     22 Sc    c    0.750000 *  0.000000 *  0.250000 *   3.00000    1.000000    
     23 Cl    c    0.250000 *  0.250000 *  0.250000 *   1.48500    1.000000    
     24 Cl    c    0.750000 *  0.500000 *  0.500000 *   1.48500    1.000000    
     25 Cl    c    0.500000 *  0.000000 *  0.750000 *   1.48500    1.000000    
     26 Cl    c    0.000000 *  0.750000 *  0.000000 *   1.48500    1.000000    
     27 Cl    c    0.250000 *  0.000000 *  0.000000 *   1.48500    1.000000    
     28 Cl    c    0.750000 *  0.750000 *  0.750000 *   1.48500    1.000000    
     29 Cl    c    0.500000 *  0.250000 *  0.500000 *   1.48500    1.000000    
     30 Cl    c    0.000000 *  0.500000 *  0.250000 *   1.48500    1.000000    
     31 Cl    c    0.500000 *  0.750000 *  0.500000 *   1.48500    1.000000    
     32 Cl    c    0.750000 *  0.500000 *  0.000000 *   1.48500    1.000000    
     33 Cl    c    0.000000 *  0.000000 *  0.750000 *   1.48500    1.000000    
     34 Cl    c    0.000000 *  0.250000 *  0.000000 *   1.48500    1.000000    
     35 Cl    c    0.500000 *  0.500000 *  0.250000 *   1.48500    1.000000    
     36 Cl    c    0.250000 *  0.000000 *  0.500000 *   1.48500    1.000000    
     37 Cl    c    0.250000 *  0.750000 *  0.750000 *   1.48500    1.000000    
     38 Cl    c    0.500000 *  0.000000 *  0.250000 *   1.48500    1.000000    
     39 Cl    c    0.750000 *  0.250000 *  0.250000 *   1.48500    1.000000    
     40 Cl    c    0.000000 *  0.500000 *  0.750000 *   1.48500    1.000000    
     41 Cl    c    0.250000 *  0.500000 *  0.500000 *   1.48500    1.000000    
     42 Cl    c    0.750000 *  0.000000 *  0.000000 *   1.48500    1.000000    
     43 Cl    c    0.250000 *  0.500000 *  0.000000 *   1.48500    1.000000    
     44 Cl    c    0.000000 *  0.000000 *  0.250000 *   1.48500    1.000000    
     45 Cl    c    0.500000 *  0.500000 *  0.750000 *   1.48500    1.000000    
     46 Cl    c    0.750000 *  0.000000 *  0.500000 *   1.48500    1.000000    
     47 Cl    c    0.000000 *  0.250000 *  0.500000 *   1.48500    1.000000    
     48 Cl    c    0.500000 *  0.750000 *  0.000000 *   1.48500    1.000000    
     49 Cl    c    0.500000 *  0.250000 *  0.000000 *   1.48500    1.000000    
     50 Cl    c    0.000000 *  0.750000 *  0.500000 *   1.48500    1.000000    
     51 Cl    c    0.750000 *  0.250000 *  0.750000 *   1.48500    1.000000    
     52 Cl    c    0.250000 *  0.750000 *  0.250000 *   1.48500    1.000000    
     53 Cl    c    0.750000 *  0.750000 *  0.250000 *   1.48500    1.000000    
     54 Cl    c    0.250000 *  0.250000 *  0.750000 *   1.48500    1.000000    
     55 Cl    s    0.250000 *  0.250000 *  0.250000 *  -2.48500    1.000000    
     56 Cl    s    0.750000 *  0.500000 *  0.500000 *  -2.48500    1.000000    
     57 Cl    s    0.500000 *  0.000000 *  0.750000 *  -2.48500    1.000000    
     58 Cl    s    0.000000 *  0.750000 *  0.000000 *  -2.48500    1.000000    
     59 Cl    s    0.250000 *  0.000000 *  0.000000 *  -2.48500    1.000000    
     60 Cl    s    0.750000 *  0.750000 *  0.750000 *  -2.48500    1.000000    
     61 Cl    s    0.500000 *  0.250000 *  0.500000 *  -2.48500    1.000000    
     62 Cl    s    0.000000 *  0.500000 *  0.250000 *  -2.48500    1.000000    
     63 Cl    s    0.500000 *  0.750000 *  0.500000 *  -2.48500    1.000000    
     64 Cl    s    0.750000 *  0.500000 *  0.000000 *  -2.48500    1.000000    
     65 Cl    s    0.000000 *  0.000000 *  0.750000 *  -2.48500    1.000000    
     66 Cl    s    0.000000 *  0.250000 *  0.000000 *  -2.48500    1.000000    
     67 Cl    s    0.500000 *  0.500000 *  0.250000 *  -2.48500    1.000000    
     68 Cl    s    0.250000 *  0.000000 *  0.500000 *  -2.48500    1.000000    
     69 Cl    s    0.250000 *  0.750000 *  0.750000 *  -2.48500    1.000000    
     70 Cl    s    0.500000 *  0.000000 *  0.250000 *  -2.48500    1.000000    
     71 Cl    s    0.750000 *  0.250000 *  0.250000 *  -2.48500    1.000000    
     72 Cl    s    0.000000 *  0.500000 *  0.750000 *  -2.48500    1.000000    
     73 Cl    s    0.250000 *  0.500000 *  0.500000 *  -2.48500    1.000000    
     74 Cl    s    0.750000 *  0.000000 *  0.000000 *  -2.48500    1.000000    
     75 Cl    s    0.250000 *  0.500000 *  0.000000 *  -2.48500    1.000000    
     76 Cl    s    0.000000 *  0.000000 *  0.250000 *  -2.48500    1.000000    
     77 Cl    s    0.500000 *  0.500000 *  0.750000 *  -2.48500    1.000000    
     78 Cl    s    0.750000 *  0.000000 *  0.500000 *  -2.48500    1.000000    
     79 Cl    s    0.000000 *  0.250000 *  0.500000 *  -2.48500    1.000000    
     80 Cl    s    0.500000 *  0.750000 *  0.000000 *  -2.48500    1.000000    
     81 Cl    s    0.500000 *  0.250000 *  0.000000 *  -2.48500    1.000000    
     82 Cl    s    0.000000 *  0.750000 *  0.500000 *  -2.48500    1.000000    
     83 Cl    s    0.750000 *  0.250000 *  0.750000 *  -2.48500    1.000000    
     84 Cl    s    0.250000 *  0.750000 *  0.250000 *  -2.48500    1.000000    
     85 Cl    s    0.750000 *  0.750000 *  0.250000 *  -2.48500    1.000000    
     86 Cl    s    0.250000 *  0.250000 *  0.750000 *  -2.48500    1.000000    
--------------------------------------------------------------------------------



********************************************************************************
*  General input information                                                   *
********************************************************************************

  Species output for all configurations : 

--------------------------------------------------------------------------------
  Species    Type    Atomic    Atomic    Charge       Radii (Angs)     Library
                     Number     Mass       (e)     Cova   Ionic  VDW   Symbol
--------------------------------------------------------------------------------
    Li       Core        3       6.94   1.000000   0.680  0.000  1.800          
    Sc       Core       21      44.96   3.000000   1.440  0.000  2.150          
    Cl       Core       17      35.45   1.485000   0.990  0.000  1.650          
    Cl       Shell      17       0.00  -2.485000   0.990  0.000  1.650          
--------------------------------------------------------------------------------


  Lattice summation method               =    Ewald          (3-D)
                                         =    Parry          (2-D)
                                         =    Saunders et al (1-D)
  Accuracy factor for lattice sums       =   12.000


  Analytic derivatives to be used

  Time limit = Infinity

  Maximum range for interatomic potentials =    100000.000000 Angstroms

  General interatomic potentials :

--------------------------------------------------------------------------------
Atom  Types   Potential      Parameter       Value         Units   Cutoffs(Ang)
  1     2                                                            Min /  Max 
--------------------------------------------------------------------------------
Cl   c Cl   s Spring (c-s)  Spring k 2       36.070000    eV*Ang^-2 0.000  0.800
                            Spring k 4       0.0000000    eV*Ang^-4 
--------------------------------------------------------------------------------
Li   c Li   c Buckingham    Buckingham A     360.53000    eV        0.000 12.000
                            Buckingham rho  0.16100000    Ang       
                            Buckingham C     0.0000000    eV*Ang^6  
--------------------------------------------------------------------------------
Li   c Cl   s Buckingham    Buckingham A     421.04000    eV        0.000 12.000
                            Buckingham rho  0.33400000    Ang       
                            Buckingham C     0.0000000    eV*Ang^6  
--------------------------------------------------------------------------------
Sc   c Cl   s Buckingham    Buckingham A     2456.2200    eV        0.000 12.000
                            Buckingham rho  0.31470000    Ang       
                            Buckingham C     0.0000000    eV*Ang^6  
--------------------------------------------------------------------------------
Cl   s Cl   s Buckingham    Buckingham A     1227.2000    eV        0.000 12.000
                            Buckingham rho  0.32100000    Ang       
                            Buckingham C     14.530000    eV*Ang^6  
--------------------------------------------------------------------------------

********************************************************************************
*  Output for configuration   1                                                *
********************************************************************************


  Components of energy : 

--------------------------------------------------------------------------------
  Interatomic potentials     =          39.98465897 eV    
  Monopole - monopole (real) =        -203.26936708 eV    
  Monopole - monopole (recip)=        -187.00458965 eV    
  Monopole - monopole (total)=        -390.27395673 eV    
--------------------------------------------------------------------------------
  Total lattice energy       =        -350.28929776 eV    
--------------------------------------------------------------------------------
  Total lattice energy       =          -33797.5626 kJ/(mole unit cells)
--------------------------------------------------------------------------------


  Number of variables =      261

  Maximum number of calculations  =          1000
  Maximum Hessian update interval =            10
  Maximum step size               =   1.000000000
  Maximum parameter tolerance     =   0.000010000
  Maximum function  tolerance     =   0.000010000
  Maximum gradient  tolerance     =   0.001000000
  Maximum gradient  component     =   0.010000000

  Symmetry not applied to optimisation

  Cell parameters to be optimised using strains

  Newton-Raphson optimiser to be used

  BFGS hessian update to be used

  Lower half triangular hessian to be used

  Start of bulk optimisation :

  Cycle:      0 Energy:      -350.289298  Gnorm:      2.594103  CPU:    0.085
  ** Hessian calculated **
  Cycle:      1 Energy:      -375.333176  Gnorm:      0.472712  CPU:    0.148
  ** Hessian calculated **
  Cycle:      2 Energy:      -376.528963  Gnorm:      0.257641  CPU:    0.246
  Cycle:      3 Energy:      -377.099595  Gnorm:      0.205607  CPU:    0.305
  Cycle:      4 Energy:      -378.436798  Gnorm:      0.332521  CPU:    0.365
  Cycle:      5 Energy:      -379.543963  Gnorm:      0.197265  CPU:    0.424
  Cycle:      6 Energy:      -380.039156  Gnorm:      0.130276  CPU:    0.473
  Cycle:      7 Energy:      -380.185058  Gnorm:      0.086546  CPU:    0.521
  Cycle:      8 Energy:      -380.281467  Gnorm:      0.092562  CPU:    0.584
  Cycle:      9 Energy:      -380.377274  Gnorm:      0.075089  CPU:    0.645
  Cycle:     10 Energy:      -380.461191  Gnorm:      0.089105  CPU:    0.705
  Cycle:     11 Energy:      -380.587812  Gnorm:      0.095697  CPU:    0.765
  ** Hessian calculated **
  Cycle:     12 Energy:      -380.768718  Gnorm:      0.093506  CPU:    0.896
  ** Hessian calculated **
  Cycle:     13 Energy:      -381.070210  Gnorm:      0.045719  CPU:    1.006
  ** Hessian calculated **
  Cycle:     14 Energy:      -381.118357  Gnorm:      0.032420  CPU:    1.105
  Cycle:     15 Energy:      -381.148518  Gnorm:      0.038512  CPU:    1.164
  Cycle:     16 Energy:      -381.164735  Gnorm:      0.060394  CPU:    1.243
  Cycle:     17 Energy:      -381.165058  Gnorm:      0.062841  CPU:    1.304
  ** Hessian calculated **
  Cycle:     18 Energy:      -381.228759  Gnorm:      0.045975  CPU:    1.403
  Cycle:     19 Energy:      -381.262536  Gnorm:      0.020290  CPU:    1.463
  Cycle:     20 Energy:      -381.267537  Gnorm:      0.013792  CPU:    1.511
  ** Hessian calculated **
  Cycle:     21 Energy:      -381.268955  Gnorm:      0.006632  CPU:    1.611
  Cycle:     22 Energy:      -381.269621  Gnorm:      0.008309  CPU:    1.670
  Cycle:     23 Energy:      -381.270910  Gnorm:      0.011138  CPU:    1.730
  Cycle:     24 Energy:      -381.280740  Gnorm:      0.029537  CPU:    1.825
  Cycle:     25 Energy:      -381.289580  Gnorm:      0.063054  CPU:    1.885
  ** Hessian calculated **
  Cycle:     26 Energy:      -381.331705  Gnorm:      0.045042  CPU:    1.998
  Cycle:     27 Energy:      -381.374116  Gnorm:      0.068257  CPU:    2.058
  Cycle:     28 Energy:      -381.437777  Gnorm:      0.060781  CPU:    2.119
  Cycle:     29 Energy:      -381.500884  Gnorm:      0.068670  CPU:    2.179
  Cycle:     30 Energy:      -381.574569  Gnorm:      0.071254  CPU:    2.228
  Cycle:     31 Energy:      -381.613099  Gnorm:      0.049821  CPU:    2.277
  Cycle:     32 Energy:      -381.638353  Gnorm:      0.042419  CPU:    2.336
  Cycle:     33 Energy:      -381.657982  Gnorm:      0.040366  CPU:    2.385
  Cycle:     34 Energy:      -381.675548  Gnorm:      0.037565  CPU:    2.446
  Cycle:     35 Energy:      -381.692033  Gnorm:      0.040342  CPU:    2.495
  ** Hessian calculated **
  Cycle:     36 Energy:      -381.764644  Gnorm:      0.021421  CPU:    2.627
  Cycle:     37 Energy:      -381.782248  Gnorm:      0.005951  CPU:    2.676
  Cycle:     38 Energy:      -381.786033  Gnorm:      0.002077  CPU:    2.724
  Cycle:     39 Energy:      -381.786298  Gnorm:      0.001126  CPU:    2.773
  Cycle:     40 Energy:      -381.786373  Gnorm:      0.000708  CPU:    2.822
  Cycle:     41 Energy:      -381.786389  Gnorm:      0.000214  CPU:    2.871
  Cycle:     42 Energy:      -381.786389  Gnorm:      0.000209  CPU:    2.976
  ** Hessian calculated **
  Cycle:     43 Energy:      -381.786389  Gnorm:      0.000206  CPU:    3.099
  Cycle:     44 Energy:      -381.786389  Gnorm:      0.000204  CPU:    3.159
  Cycle:     45 Energy:      -381.786389  Gnorm:      0.000192  CPU:    3.252
  Cycle:     46 Energy:      -381.786389  Gnorm:      0.000192  CPU:    3.357
  Cycle:     47 Energy:      -381.786389  Gnorm:      0.000192  CPU:    3.405
  Cycle:     48 Energy:      -381.786389  Gnorm:      0.000191  CPU:    3.454
  Cycle:     49 Energy:      -381.786389  Gnorm:      0.000191  CPU:    3.514
  Cycle:     50 Energy:      -381.786389  Gnorm:      0.000191  CPU:    3.563
  Cycle:     51 Energy:      -381.786389  Gnorm:      0.000191  CPU:    3.624
  Cycle:     52 Energy:      -381.786389  Gnorm:      0.000190  CPU:    3.684
  ** Hessian calculated **
  Cycle:     53 Energy:      -381.786389  Gnorm:      0.000191  CPU:    3.870
  Cycle:     54 Energy:      -381.786389  Gnorm:      0.000191  CPU:    3.930
  Cycle:     55 Energy:      -381.786389  Gnorm:      0.000190  CPU:    3.990
  Cycle:     56 Energy:      -381.786389  Gnorm:      0.000189  CPU:    4.050


  **** Too many failed attempts to optimise ****

  Final energy =    -381.78638923 eV
  Final Gnorm  =       0.00018857

  Components of energy : 

--------------------------------------------------------------------------------
  Interatomic potentials     =          72.03568590 eV    
  Monopole - monopole (real) =         195.02741756 eV    
  Monopole - monopole (recip)=        -648.84949269 eV    
  Monopole - monopole (total)=        -453.82207513 eV    
--------------------------------------------------------------------------------
  Total lattice energy       =        -381.78638923 eV    
--------------------------------------------------------------------------------
  Total lattice energy       =          -36836.5504 kJ/(mole unit cells)
--------------------------------------------------------------------------------

  Final fractional coordinates of atoms :

--------------------------------------------------------------------------------
   No.  Atomic        x           y          z          Radius
        Label       (Frac)      (Frac)     (Frac)       (Angs) 
--------------------------------------------------------------------------------
     1  Li    c     0.375000    0.375000    0.875000    0.000000
     2  Li    c     0.247551    0.771519    0.497349    0.000000
     3  Li    c     0.992923    0.784479    0.774216    0.000000
     4  Li    c     0.614893    0.652739    0.104757    0.000000
     5  Li    c     0.494924    0.038151    0.511846    0.000000
     6  Li    c     0.111414    0.152438    0.117196    0.000000
     7  Li    c     0.495210    0.520126    0.488863    0.000000
     8  Li    c     0.466272    0.758476    0.733320    0.000000
     9  Li    c     0.224709    0.762378    0.984248    0.000000
    10  Li    c     0.257751    0.251726    0.485512    0.000000
    11  Li    c     0.748657    0.269106    0.002215    0.000000
    12  Li    c     0.517467    0.272931    0.262986    0.000000
    13  Li    c     0.002594    0.745164    0.254726    0.000000
    14  Li    c     0.746349    0.758862    0.498808    0.000000
    15  Li    c     0.244178    0.003269    0.734328    0.000000
    16  Li    c     0.992784    0.526585    0.003322    0.000000
    17  Li    c     0.018762    0.007160    0.489599    0.000000
    18  Sc    c     0.249076    0.508824    0.235169    0.000000
    19  Sc    c     0.739749    0.508286    0.734994    0.000000
    20  Sc    c     0.000557    0.255519    0.736230    0.000000
    21  Sc    c     0.491456    0.009274    0.986675    0.000000
    22  Sc    c     0.752472    0.003643    0.234807    0.000000
    23  Cl    c     0.258897    0.276468    0.234843    0.000000
    24  Cl    c     0.729307    0.517296    0.507519    0.000000
    25  Cl    c     0.490332    0.004014    0.758327    0.000000
    26  Cl    c     0.004856    0.742001    0.990726    0.000000
    27  Cl    c     0.256842    0.012022    0.993816    0.000000
    28  Cl    c     0.760678    0.737317    0.741917    0.000000
    29  Cl    c     0.480403    0.258374    0.474111    0.000000
    30  Cl    c     0.013540    0.507938    0.226214    0.000000
    31  Cl    c     0.492383    0.757227    0.519591    0.000000
    32  Cl    c     0.742138    0.499816    0.968823    0.000000
    33  Cl    c     0.998892    0.026473    0.742844    0.000000
    34  Cl    c     0.986051    0.273895    0.968262    0.000000
    35  Cl    c     0.489643    0.504056    0.231969    0.000000
    36  Cl    c     0.261536    0.010040    0.509763    0.000000
    37  Cl    c     0.229606    0.779444    0.746819    0.000000
    38  Cl    c     0.507454    0.005225    0.223021    0.000000
    39  Cl    c     0.748630    0.233049    0.222266    0.000000
    40  Cl    c     0.983545    0.493505    0.740624    0.000000
    41  Cl    c     0.260304    0.511669    0.465484    0.000000
    42  Cl    c     0.733096    0.999831    0.997056    0.000000
    43  Cl    c     0.252646    0.515083    0.002093    0.000000
    44  Cl    c     0.987001    0.002029    0.236452    0.000000
    45  Cl    c     0.504226    0.512892    0.747058    0.000000
    46  Cl    c     0.728191    0.999262    0.462676    0.000000
    47  Cl    c     0.017308    0.241644    0.508597    0.000000
    48  Cl    c     0.477639    0.777715    0.977366    0.000000
    49  Cl    c     0.509612    0.239495    0.999551    0.000000
    50  Cl    c     0.996471    0.790583    0.484850    0.000000
    51  Cl    c     0.757543    0.271017    0.742654    0.000000
    52  Cl    c     0.243500    0.740680    0.239079    0.000000
    53  Cl    c     0.755319    0.771747    0.238720    0.000000
    54  Cl    c     0.235865    0.257938    0.742754    0.000000
    55  Cl    s     0.256968    0.287071    0.234434    0.000000
    56  Cl    s     0.724942    0.520930    0.523277    0.000000
    57  Cl    s     0.486563    0.001791    0.770564    0.000000
    58  Cl    s     0.010535    0.737363    0.987717    0.000000
    59  Cl    s     0.269341    0.012198    0.993561    0.000000
    60  Cl    s     0.762182    0.722918    0.738542    0.000000
    61  Cl    s     0.475683    0.255839    0.468931    0.000000
    62  Cl    s     0.028322    0.512467    0.221280    0.000000
    63  Cl    s     0.491360    0.755306    0.524874    0.000000
    64  Cl    s     0.742584    0.498917    0.958682    0.000000
    65  Cl    s     0.002773    0.038052    0.740164    0.000000
    66  Cl    s     0.985355    0.272652    0.957997    0.000000
    67  Cl    s     0.479563    0.503610    0.231986    0.000000
    68  Cl    s     0.261712    0.010100    0.513865    0.000000
    69  Cl    s     0.230105    0.783787    0.747728    0.000000
    70  Cl    s     0.519619    0.007810    0.211567    0.000000
    71  Cl    s     0.743935    0.218795    0.217333    0.000000
    72  Cl    s     0.971330    0.482509    0.743170    0.000000
    73  Cl    s     0.264469    0.511636    0.451516    0.000000
    74  Cl    s     0.720149    0.003141    0.009791    0.000000
    75  Cl    s     0.253042    0.513627    0.012302    0.000000
    76  Cl    s     0.974534    0.003734    0.236100    0.000000
    77  Cl    s     0.516040    0.512181    0.747278    0.000000
    78  Cl    s     0.727095    0.996488    0.448255    0.000000
    79  Cl    s     0.020936    0.237891    0.524337    0.000000
    80  Cl    s     0.478732    0.788946    0.977885    0.000000
    81  Cl    s     0.509756    0.228234    0.997904    0.000000
    82  Cl    s     0.996929    0.795280    0.482480    0.000000
    83  Cl    s     0.770117    0.283675    0.745318    0.000000
    84  Cl    s     0.239482    0.726630    0.238835    0.000000
    85  Cl    s     0.754813    0.782881    0.237582    0.000000
    86  Cl    s     0.224314    0.258341    0.743815    0.000000
--------------------------------------------------------------------------------

  Final Cartesian lattice vectors (Angstroms) :

       10.463451   -0.034181    0.097948
       -0.036081   10.689079   -0.090709
        0.101576   -0.091277   10.702097


  Final cell parameters and derivatives :

--------------------------------------------------------------------------------
       a           10.463966 Angstrom     dE/de1(xx)    -0.001097 eV/strain
       b           10.689525 Angstrom     dE/de2(yy)     0.001359 eV/strain
       c           10.702968 Angstrom     dE/de3(zz)     0.001616 eV/strain
       alpha       90.976650 Degrees      dE/de4(yz)    -0.000432 eV/strain
       beta        88.918334 Degrees      dE/de5(xz)     0.000318 eV/strain
       gamma       90.385090 Degrees      dE/de6(xy)    -0.000020 eV/strain
--------------------------------------------------------------------------------

  Primitive cell volume =          1196.766868 Angs**3

  Density of cell =      2.049651 g/cm**3

  Non-primitive cell volume =          1196.766868 Angs**3


  Final internal derivatives :

--------------------------------------------------------------------------------
   No.  Atomic          a             b             c           Radius
        Label          (eV)          (eV)          (eV)        (eV/Angs)
--------------------------------------------------------------------------------
      1 Li    c       0.000000      0.000000      0.000000      0.000000
      2 Li    c      -0.000981     -0.000211      0.000073      0.000000
      3 Li    c       0.001349     -0.000162     -0.001763      0.000000
      4 Li    c      -0.004091      0.008406     -0.005656      0.000000
      5 Li    c       0.000498     -0.000044      0.000355      0.000000
      6 Li    c      -0.000644     -0.000143     -0.000445      0.000000
      7 Li    c      -0.000242      0.002001      0.003451      0.000000
      8 Li    c       0.001138      0.000888      0.002085      0.000000
      9 Li    c       0.000764     -0.000234      0.000787      0.000000
     10 Li    c       0.001397      0.000249     -0.000310      0.000000
     11 Li    c       0.000498     -0.002268     -0.000971      0.000000
     12 Li    c      -0.000402     -0.004638      0.000852      0.000000
     13 Li    c       0.003146     -0.000485     -0.003546      0.000000
     14 Li    c      -0.003116     -0.000217      0.001895      0.000000
     15 Li    c       0.000423     -0.000271     -0.000234      0.000000
     16 Li    c       0.002528      0.000503      0.000905      0.000000
     17 Li    c      -0.000131      0.000456     -0.000432      0.000000
     18 Sc    c       0.000313      0.002163     -0.002319      0.000000
     19 Sc    c      -0.002523     -0.001294     -0.000125      0.000000
     20 Sc    c      -0.000391      0.000190      0.001204      0.000000
     21 Sc    c      -0.000277     -0.001181     -0.002296      0.000000
     22 Sc    c       0.002703      0.003566     -0.002114      0.000000
     23 Cl    c       0.000409      0.001505      0.001683      0.000000
     24 Cl    c       0.004061     -0.003888     -0.001570      0.000000
     25 Cl    c       0.000263     -0.002308      0.000751      0.000000
     26 Cl    c       0.000284      0.001093      0.011876      0.000000
     27 Cl    c      -0.001203      0.000343      0.001032      0.000000
     28 Cl    c      -0.007704      0.000407      0.005602      0.000000
     29 Cl    c      -0.000384      0.001919     -0.001143      0.000000
     30 Cl    c      -0.000366     -0.002509      0.002992      0.000000
     31 Cl    c       0.007891     -0.007708      0.003681      0.000000
     32 Cl    c       0.002615      0.000903     -0.004585      0.000000
     33 Cl    c       0.000200      0.003007      0.002507      0.000000
     34 Cl    c      -0.001995      0.002856     -0.000103      0.000000
     35 Cl    c      -0.004853      0.008704      0.002530      0.000000
     36 Cl    c       0.000982      0.001409      0.002353      0.000000
     37 Cl    c       0.001112      0.001254     -0.001945      0.000000
     38 Cl    c       0.000027      0.003679     -0.000604      0.000000
     39 Cl    c       0.003612     -0.000911      0.003326      0.000000
     40 Cl    c       0.000596     -0.001851      0.000958      0.000000
     41 Cl    c      -0.000600     -0.002377     -0.001817      0.000000
     42 Cl    c       0.002462     -0.002334     -0.002732      0.000000
     43 Cl    c      -0.002195      0.001913     -0.002390      0.000000
     44 Cl    c      -0.000330      0.002600     -0.000508      0.000000
     45 Cl    c       0.002094     -0.001270     -0.000299      0.000000
     46 Cl    c      -0.001273      0.001829      0.000793      0.000000
     47 Cl    c      -0.000351      0.000527     -0.000865      0.000000
     48 Cl    c       0.005767     -0.007226      0.005317      0.000000
     49 Cl    c      -0.001943      0.000879      0.000159      0.000000
     50 Cl    c      -0.001036     -0.006515      0.011170      0.000000
     51 Cl    c       0.001879      0.000146      0.004091      0.000000
     52 Cl    c      -0.002760     -0.002080     -0.001321      0.000000
     53 Cl    c      -0.005898     -0.003277     -0.004753      0.000000
     54 Cl    c       0.000191      0.000583      0.000168      0.000000
     55 Cl    s       0.000435     -0.000478     -0.001976      0.000000
     56 Cl    s      -0.003385      0.004292     -0.001486      0.000000
     57 Cl    s      -0.000396      0.003026      0.000406      0.000000
     58 Cl    s      -0.000742     -0.002922     -0.008434      0.000000
     59 Cl    s       0.000929      0.001247     -0.000906      0.000000
     60 Cl    s       0.008573      0.000881     -0.008261      0.000000
     61 Cl    s      -0.000525     -0.001824      0.001799      0.000000
     62 Cl    s       0.002297      0.001664     -0.003205      0.000000
     63 Cl    s      -0.002682      0.002894     -0.007246      0.000000
     64 Cl    s      -0.001093     -0.003306      0.006595      0.000000
     65 Cl    s      -0.001004     -0.003963     -0.003156      0.000000
     66 Cl    s       0.003361     -0.003047     -0.000906      0.000000
     67 Cl    s      -0.000125     -0.006250     -0.001296      0.000000
     68 Cl    s      -0.001114     -0.001084     -0.003067      0.000000
     69 Cl    s      -0.002488     -0.001226      0.003048      0.000000
     70 Cl    s       0.001819     -0.004328      0.000651      0.000000
     71 Cl    s      -0.004266      0.000517     -0.003645      0.000000
     72 Cl    s       0.001822      0.003189     -0.001228      0.000000
     73 Cl    s       0.000104      0.003797      0.001489      0.000000
     74 Cl    s      -0.003409      0.004614      0.005584      0.000000
     75 Cl    s       0.000725     -0.002442      0.003803      0.000000
     76 Cl    s      -0.001440     -0.003701      0.001233      0.000000
     77 Cl    s      -0.002193      0.001145     -0.000555      0.000000
     78 Cl    s       0.002039     -0.002437     -0.000860      0.000000
     79 Cl    s      -0.000452     -0.000489      0.001510      0.000000
     80 Cl    s      -0.004068      0.004215     -0.001484      0.000000
     81 Cl    s       0.002676     -0.001820     -0.000810      0.000000
     82 Cl    s      -0.001823      0.008306     -0.009168      0.000000
     83 Cl    s      -0.002135     -0.000917     -0.004503      0.000000
     84 Cl    s       0.001472     -0.001457      0.002755      0.000000
     85 Cl    s       0.003287      0.003261      0.004658      0.000000
     86 Cl    s      -0.000137     -0.000033      0.000133      0.000000
--------------------------------------------------------------------------------
  Maximum abs         0.008573      0.008704      0.011876      0.000000
--------------------------------------------------------------------------------

  Comparison of initial and final structures : 

--------------------------------------------------------------------------------
  Parameter   Initial value   Final value   Difference    Units      Percent
--------------------------------------------------------------------------------
    Volume      1126.065003   1196.766868    70.701865    Angs**3      6.28
    a             10.403700     10.463966     0.060266    Angstroms    0.58
    b             10.403700     10.689525     0.285825    Angstroms    2.75
    c             10.403700     10.702968     0.299268    Angstroms    2.88
    alpha         90.000000     90.976650     0.976650    Degrees      1.09
    beta          90.000000     88.918334    -1.081666    Degrees     -1.20
    gamma         90.000000     90.385090     0.385090    Degrees      0.43
      1 x          0.375000      0.375000     0.000000    Fractional   0.00
      1 y          0.375000      0.375000     0.000000    Fractional   0.00
      1 z          0.875000      0.875000     0.000000    Fractional   0.00
      2 x          0.250000      0.247551     0.002449    Fractional   0.98
      2 y          0.750000      0.771519     0.021519    Fractional   2.87
      2 z          0.500000      0.497349     0.002651    Fractional   0.53
      3 x          0.000000      0.992923     0.992923    Fractional   0.00
      3 y          0.750000      0.784479     0.034479    Fractional   4.60
      3 z          0.750000      0.774216     0.024216    Fractional   3.23
      4 x          0.750000      0.614893     0.135107    Fractional  18.01
      4 y          0.500000      0.652739     0.152739    Fractional  30.55
      4 z          0.250000      0.104757     0.145243    Fractional  58.10
      5 x          0.500000      0.494924     0.005076    Fractional   1.02
      5 y          0.000000      0.038151     0.038151    Fractional   0.00
      5 z          0.500000      0.511846     0.011846    Fractional   2.37
      6 x          0.125000      0.111414     0.013586    Fractional  10.87
      6 y          0.875000      0.152438     0.277438    Fractional  31.71
      6 z          0.125000      0.117196     0.007804    Fractional   6.24
      7 x          0.500000      0.495210     0.004790    Fractional   0.96
      7 y          0.500000      0.520126     0.020126    Fractional   4.03
      7 z          0.500000      0.488863     0.011137    Fractional   2.23
      8 x          0.500000      0.466272     0.033728    Fractional   6.75
      8 y          0.750000      0.758476     0.008476    Fractional   1.13
      8 z          0.750000      0.733320     0.016680    Fractional   2.22
      9 x          0.250000      0.224709     0.025291    Fractional  10.12
      9 y          0.750000      0.762378     0.012378    Fractional   1.65
      9 z          0.000000      0.984248     0.984248    Fractional   0.00
     10 x          0.250000      0.257751     0.007751    Fractional   3.10
     10 y          0.250000      0.251726     0.001726    Fractional   0.69
     10 z          0.500000      0.485512     0.014488    Fractional   2.90
     11 x          0.750000      0.748657     0.001343    Fractional   0.18
     11 y          0.250000      0.269106     0.019106    Fractional   7.64
     11 z          0.000000      0.002215     0.002215    Fractional   0.00
     12 x          0.500000      0.517467     0.017467    Fractional   3.49
     12 y          0.250000      0.272931     0.022931    Fractional   9.17
     12 z          0.250000      0.262986     0.012986    Fractional   5.19
     13 x          0.000000      0.002594     0.002594    Fractional   0.00
     13 y          0.750000      0.745164     0.004836    Fractional   0.64
     13 z          0.250000      0.254726     0.004726    Fractional   1.89
     14 x          0.750000      0.746349     0.003651    Fractional   0.49
     14 y          0.750000      0.758862     0.008862    Fractional   1.18
     14 z          0.500000      0.498808     0.001192    Fractional   0.24
     15 x          0.250000      0.244178     0.005822    Fractional   2.33
     15 y          0.000000      0.003269     0.003269    Fractional   0.00
     15 z          0.750000      0.734328     0.015672    Fractional   2.09
     16 x          0.000000      0.992784     0.992784    Fractional   0.00
     16 y          0.500000      0.526585     0.026585    Fractional   5.32
     16 z          0.000000      0.003322     0.003322    Fractional   0.00
     17 x          0.000000      0.018762     0.018762    Fractional   0.00
     17 y          0.000000      0.007160     0.007160    Fractional   0.00
     17 z          0.500000      0.489599     0.010401    Fractional   2.08
     18 x          0.250000      0.249076     0.000924    Fractional   0.37
     18 y          0.500000      0.508824     0.008824    Fractional   1.76
     18 z          0.250000      0.235169     0.014831    Fractional   5.93
     19 x          0.750000      0.739749     0.010251    Fractional   1.37
     19 y          0.500000      0.508286     0.008286    Fractional   1.66
     19 z          0.750000      0.734994     0.015006    Fractional   2.00
     20 x          0.000000      0.000557     0.000557    Fractional   0.00
     20 y          0.250000      0.255519     0.005519    Fractional   2.21
     20 z          0.750000      0.736230     0.013770    Fractional   1.84
     21 x          0.500000      0.491456     0.008544    Fractional   1.71
     21 y          0.000000      0.009274     0.009274    Fractional   0.00
     21 z          0.000000      0.986675     0.986675    Fractional   0.00
     22 x          0.750000      0.752472     0.002472    Fractional   0.33
     22 y          0.000000      0.003643     0.003643    Fractional   0.00
     22 z          0.250000      0.234807     0.015193    Fractional   6.08
     23 x          0.250000      0.258897     0.008897    Fractional   3.56
     23 y          0.250000      0.276468     0.026468    Fractional  10.59
     23 z          0.250000      0.234843     0.015157    Fractional   6.06
     24 x          0.750000      0.729307     0.020693    Fractional   2.76
     24 y          0.500000      0.517296     0.017296    Fractional   3.46
     24 z          0.500000      0.507519     0.007519    Fractional   1.50
     25 x          0.500000      0.490332     0.009668    Fractional   1.93
     25 y          0.000000      0.004014     0.004014    Fractional   0.00
     25 z          0.750000      0.758327     0.008327    Fractional   1.11
     26 x          0.000000      0.004856     0.004856    Fractional   0.00
     26 y          0.750000      0.742001     0.007999    Fractional   1.07
     26 z          0.000000      0.990726     0.990726    Fractional   0.00
     27 x          0.250000      0.256842     0.006842    Fractional   2.74
     27 y          0.000000      0.012022     0.012022    Fractional   0.00
     27 z          0.000000      0.993816     0.993816    Fractional   0.00
     28 x          0.750000      0.760678     0.010678    Fractional   1.42
     28 y          0.750000      0.737317     0.012683    Fractional   1.69
     28 z          0.750000      0.741917     0.008083    Fractional   1.08
     29 x          0.500000      0.480403     0.019597    Fractional   3.92
     29 y          0.250000      0.258374     0.008374    Fractional   3.35
     29 z          0.500000      0.474111     0.025889    Fractional   5.18
     30 x          0.000000      0.013540     0.013540    Fractional   0.00
     30 y          0.500000      0.507938     0.007938    Fractional   1.59
     30 z          0.250000      0.226214     0.023786    Fractional   9.51
     31 x          0.500000      0.492383     0.007617    Fractional   1.52
     31 y          0.750000      0.757227     0.007227    Fractional   0.96
     31 z          0.500000      0.519591     0.019591    Fractional   3.92
     32 x          0.750000      0.742138     0.007862    Fractional   1.05
     32 y          0.500000      0.499816     0.000184    Fractional   0.04
     32 z          0.000000      0.968823     0.968823    Fractional   0.00
     33 x          0.000000      0.998892     0.998892    Fractional   0.00
     33 y          0.000000      0.026473     0.026473    Fractional   0.00
     33 z          0.750000      0.742844     0.007156    Fractional   0.95
     34 x          0.000000      0.986051     0.986051    Fractional   0.00
     34 y          0.250000      0.273895     0.023895    Fractional   9.56
     34 z          0.000000      0.968262     0.968262    Fractional   0.00
     35 x          0.500000      0.489643     0.010357    Fractional   2.07
     35 y          0.500000      0.504056     0.004056    Fractional   0.81
     35 z          0.250000      0.231969     0.018031    Fractional   7.21
     36 x          0.250000      0.261536     0.011536    Fractional   4.61
     36 y          0.000000      0.010040     0.010040    Fractional   0.00
     36 z          0.500000      0.509763     0.009763    Fractional   1.95
     37 x          0.250000      0.229606     0.020394    Fractional   8.16
     37 y          0.750000      0.779444     0.029444    Fractional   3.93
     37 z          0.750000      0.746819     0.003181    Fractional   0.42
     38 x          0.500000      0.507454     0.007454    Fractional   1.49
     38 y          0.000000      0.005225     0.005225    Fractional   0.00
     38 z          0.250000      0.223021     0.026979    Fractional  10.79
     39 x          0.750000      0.748630     0.001370    Fractional   0.18
     39 y          0.250000      0.233049     0.016951    Fractional   6.78
     39 z          0.250000      0.222266     0.027734    Fractional  11.09
     40 x          0.000000      0.983545     0.983545    Fractional   0.00
     40 y          0.500000      0.493505     0.006495    Fractional   1.30
     40 z          0.750000      0.740624     0.009376    Fractional   1.25
     41 x          0.250000      0.260304     0.010304    Fractional   4.12
     41 y          0.500000      0.511669     0.011669    Fractional   2.33
     41 z          0.500000      0.465484     0.034516    Fractional   6.90
     42 x          0.750000      0.733096     0.016904    Fractional   2.25
     42 y          0.000000      0.999831     0.999831    Fractional   0.00
     42 z          0.000000      0.997056     0.997056    Fractional   0.00
     43 x          0.250000      0.252646     0.002646    Fractional   1.06
     43 y          0.500000      0.515083     0.015083    Fractional   3.02
     43 z          0.000000      0.002093     0.002093    Fractional   0.00
     44 x          0.000000      0.987001     0.987001    Fractional   0.00
     44 y          0.000000      0.002029     0.002029    Fractional   0.00
     44 z          0.250000      0.236452     0.013548    Fractional   5.42
     45 x          0.500000      0.504226     0.004226    Fractional   0.85
     45 y          0.500000      0.512892     0.012892    Fractional   2.58
     45 z          0.750000      0.747058     0.002942    Fractional   0.39
     46 x          0.750000      0.728191     0.021809    Fractional   2.91
     46 y          0.000000      0.999262     0.999262    Fractional   0.00
     46 z          0.500000      0.462676     0.037324    Fractional   7.46
     47 x          0.000000      0.017308     0.017308    Fractional   0.00
     47 y          0.250000      0.241644     0.008356    Fractional   3.34
     47 z          0.500000      0.508597     0.008597    Fractional   1.72
     48 x          0.500000      0.477639     0.022361    Fractional   4.47
     48 y          0.750000      0.777715     0.027715    Fractional   3.70
     48 z          0.000000      0.977366     0.977366    Fractional   0.00
     49 x          0.500000      0.509612     0.009612    Fractional   1.92
     49 y          0.250000      0.239495     0.010505    Fractional   4.20
     49 z          0.000000      0.999551     0.999551    Fractional   0.00
     50 x          0.000000      0.996471     0.996471    Fractional   0.00
     50 y          0.750000      0.790583     0.040583    Fractional   5.41
     50 z          0.500000      0.484850     0.015150    Fractional   3.03
     51 x          0.750000      0.757543     0.007543    Fractional   1.01
     51 y          0.250000      0.271017     0.021017    Fractional   8.41
     51 z          0.750000      0.742654     0.007346    Fractional   0.98
     52 x          0.250000      0.243500     0.006500    Fractional   2.60
     52 y          0.750000      0.740680     0.009320    Fractional   1.24
     52 z          0.250000      0.239079     0.010921    Fractional   4.37
     53 x          0.750000      0.755319     0.005319    Fractional   0.71
     53 y          0.750000      0.771747     0.021747    Fractional   2.90
     53 z          0.250000      0.238720     0.011280    Fractional   4.51
     54 x          0.250000      0.235865     0.014135    Fractional   5.65
     54 y          0.250000      0.257938     0.007938    Fractional   3.18
     54 z          0.750000      0.742754     0.007246    Fractional   0.97
     55 x          0.250000      0.256968     0.006968    Fractional   2.79
     55 y          0.250000      0.287071     0.037071    Fractional  14.83
     55 z          0.250000      0.234434     0.015566    Fractional   6.23
     56 x          0.750000      0.724942     0.025058    Fractional   3.34
     56 y          0.500000      0.520930     0.020930    Fractional   4.19
     56 z          0.500000      0.523277     0.023277    Fractional   4.66
     57 x          0.500000      0.486563     0.013437    Fractional   2.69
     57 y          0.000000      0.001791     0.001791    Fractional   0.00
     57 z          0.750000      0.770564     0.020564    Fractional   2.74
     58 x          0.000000      0.010535     0.010535    Fractional   0.00
     58 y          0.750000      0.737363     0.012637    Fractional   1.68
     58 z          0.000000      0.987717     0.987717    Fractional   0.00
     59 x          0.250000      0.269341     0.019341    Fractional   7.74
     59 y          0.000000      0.012198     0.012198    Fractional   0.00
     59 z          0.000000      0.993561     0.993561    Fractional   0.00
     60 x          0.750000      0.762182     0.012182    Fractional   1.62
     60 y          0.750000      0.722918     0.027082    Fractional   3.61
     60 z          0.750000      0.738542     0.011458    Fractional   1.53
     61 x          0.500000      0.475683     0.024317    Fractional   4.86
     61 y          0.250000      0.255839     0.005839    Fractional   2.34
     61 z          0.500000      0.468931     0.031069    Fractional   6.21
     62 x          0.000000      0.028322     0.028322    Fractional   0.00
     62 y          0.500000      0.512467     0.012467    Fractional   2.49
     62 z          0.250000      0.221280     0.028720    Fractional  11.49
     63 x          0.500000      0.491360     0.008640    Fractional   1.73
     63 y          0.750000      0.755306     0.005306    Fractional   0.71
     63 z          0.500000      0.524874     0.024874    Fractional   4.97
     64 x          0.750000      0.742584     0.007416    Fractional   0.99
     64 y          0.500000      0.498917     0.001083    Fractional   0.22
     64 z          0.000000      0.958682     0.958682    Fractional   0.00
     65 x          0.000000      0.002773     0.002773    Fractional   0.00
     65 y          0.000000      0.038052     0.038052    Fractional   0.00
     65 z          0.750000      0.740164     0.009836    Fractional   1.31
     66 x          0.000000      0.985355     0.985355    Fractional   0.00
     66 y          0.250000      0.272652     0.022652    Fractional   9.06
     66 z          0.000000      0.957997     0.957997    Fractional   0.00
     67 x          0.500000      0.479563     0.020437    Fractional   4.09
     67 y          0.500000      0.503610     0.003610    Fractional   0.72
     67 z          0.250000      0.231986     0.018014    Fractional   7.21
     68 x          0.250000      0.261712     0.011712    Fractional   4.68
     68 y          0.000000      0.010100     0.010100    Fractional   0.00
     68 z          0.500000      0.513865     0.013865    Fractional   2.77
     69 x          0.250000      0.230105     0.019895    Fractional   7.96
     69 y          0.750000      0.783787     0.033787    Fractional   4.50
     69 z          0.750000      0.747728     0.002272    Fractional   0.30
     70 x          0.500000      0.519619     0.019619    Fractional   3.92
     70 y          0.000000      0.007810     0.007810    Fractional   0.00
     70 z          0.250000      0.211567     0.038433    Fractional  15.37
     71 x          0.750000      0.743935     0.006065    Fractional   0.81
     71 y          0.250000      0.218795     0.031205    Fractional  12.48
     71 z          0.250000      0.217333     0.032667    Fractional  13.07
     72 x          0.000000      0.971330     0.971330    Fractional   0.00
     72 y          0.500000      0.482509     0.017491    Fractional   3.50
     72 z          0.750000      0.743170     0.006830    Fractional   0.91
     73 x          0.250000      0.264469     0.014469    Fractional   5.79
     73 y          0.500000      0.511636     0.011636    Fractional   2.33
     73 z          0.500000      0.451516     0.048484    Fractional   9.70
     74 x          0.750000      0.720149     0.029851    Fractional   3.98
     74 y          0.000000      0.003141     0.003141    Fractional   0.00
     74 z          0.000000      0.009791     0.009791    Fractional   0.00
     75 x          0.250000      0.253042     0.003042    Fractional   1.22
     75 y          0.500000      0.513627     0.013627    Fractional   2.73
     75 z          0.000000      0.012302     0.012302    Fractional   0.00
     76 x          0.000000      0.974534     0.974534    Fractional   0.00
     76 y          0.000000      0.003734     0.003734    Fractional   0.00
     76 z          0.250000      0.236100     0.013900    Fractional   5.56
     77 x          0.500000      0.516040     0.016040    Fractional   3.21
     77 y          0.500000      0.512181     0.012181    Fractional   2.44
     77 z          0.750000      0.747278     0.002722    Fractional   0.36
     78 x          0.750000      0.727095     0.022905    Fractional   3.05
     78 y          0.000000      0.996488     0.996488    Fractional   0.00
     78 z          0.500000      0.448255     0.051745    Fractional  10.35
     79 x          0.000000      0.020936     0.020936    Fractional   0.00
     79 y          0.250000      0.237891     0.012109    Fractional   4.84
     79 z          0.500000      0.524337     0.024337    Fractional   4.87
     80 x          0.500000      0.478732     0.021268    Fractional   4.25
     80 y          0.750000      0.788946     0.038946    Fractional   5.19
     80 z          0.000000      0.977885     0.977885    Fractional   0.00
     81 x          0.500000      0.509756     0.009756    Fractional   1.95
     81 y          0.250000      0.228234     0.021766    Fractional   8.71
     81 z          0.000000      0.997904     0.997904    Fractional   0.00
     82 x          0.000000      0.996929     0.996929    Fractional   0.00
     82 y          0.750000      0.795280     0.045280    Fractional   6.04
     82 z          0.500000      0.482480     0.017520    Fractional   3.50
     83 x          0.750000      0.770117     0.020117    Fractional   2.68
     83 y          0.250000      0.283675     0.033675    Fractional  13.47
     83 z          0.750000      0.745318     0.004682    Fractional   0.62
     84 x          0.250000      0.239482     0.010518    Fractional   4.21
     84 y          0.750000      0.726630     0.023370    Fractional   3.12
     84 z          0.250000      0.238835     0.011165    Fractional   4.47
     85 x          0.750000      0.754813     0.004813    Fractional   0.64
     85 y          0.750000      0.782881     0.032881    Fractional   4.38
     85 z          0.250000      0.237582     0.012418    Fractional   4.97
     86 x          0.250000      0.224314     0.025686    Fractional  10.27
     86 y          0.250000      0.258341     0.008341    Fractional   3.34
     86 z          0.750000      0.743815     0.006185    Fractional   0.82
--------------------------------------------------------------------------------


  Time to end of optimisation =       4.0996 seconds


  Peak dynamic memory used =       3.43 MB 


  Timing analysis for GULP :

--------------------------------------------------------------------------------
  Task / Subroutine                                          Time (Seconds)
--------------------------------------------------------------------------------
  Calculation of reciprocal space energy and derivatives          0.2738
  Calculation of real space energy and derivatives                3.7613
  Calculation and manipulation of Hessian matrix                  0.0014
  Calculation of matrix inversion                                 0.0416
  Symmetry generation of equivalent positions                     0.0001
  Global summation overhead                                       0.0001
--------------------------------------------------------------------------------
  Total CPU time                                                  4.0996
--------------------------------------------------------------------------------


  Dump file written as halospinel.grs


  Job Finished at 14:49.37  4th March      2022                               

