LAMMPS (7 Aug 2019)
  using 1 OpenMP thread(s) per MPI task

# Input written to comply with LAMMPS 2017-08-11 00:00:00

# Atomic Configuration
units           metal
boundary        p p p
box             tilt large
atom_style      charge
read_data       triclinic_9x9x9.lmp
  orthogonal box = (0 0 0) to (93.6333 93.6333 93.6333)
  4 by 5 by 8 MPI processor grid
  reading atoms ...
  39366 atoms
  read_data CPU = 0.0674522 secs
group           lithium type 1
12393 atoms in group lithium
group           scandium type 2
3645 atoms in group scandium
group           chloride type 3
23328 atoms in group chloride
variable        T1 equal 600
variable        dt equal 0.001

# Potential Setup
pair_style      buck/coul/long 12.0
pair_coeff      * * 0.0 1.0 0.0
pair_coeff      1 1    360.530000  0.161000   0.000000 # Li Li
pair_coeff      1 3    421.040000  0.344000   0.000000 # Li Cl
pair_coeff      3 3   1227.200000  0.321000  14.530000 # Cl Cl
pair_coeff      2 3  12131.350000  0.250700   0.000000 # Sc Cl

kspace_style    pppm 1e-05

# General Setup
timestep        ${dt}
timestep        0.001

# Thermodynamic Information Output
thermo_style    custom step temp epair emol etotal press lx ly lz fmax cpu cpuremain
thermo          1000

# Intial Atom Velocity
velocity        all create ${T1} 601362 dist gaussian rot yes
velocity        all create 600 601362 dist gaussian rot yes

# Stage 0: npt_equilibriation
restart         0
fix             int all npt aniso 1.0 1.0 $(1000*dt) temp ${T1} ${T1} $(100*dt)
fix             int all npt aniso 1.0 1.0 1 temp ${T1} ${T1} $(100*dt)
fix             int all npt aniso 1.0 1.0 1 temp 600 ${T1} $(100*dt)
fix             int all npt aniso 1.0 1.0 1 temp 600 600 $(100*dt)
fix             int all npt aniso 1.0 1.0 1 temp 600 600 0.10000000000000000555
run             50000
PPPM initialization ...
  using 12-bit tables for long-range coulomb (../kspace.cpp:323)
  G vector (1/distance) = 0.264753
  grid = 81 81 81
  stencil order = 5
  estimated absolute RMS force accuracy = 0.000184939
  estimated relative force accuracy = 1.28433e-05
  using double precision MKL FFT
  3d grid and FFT values/proc = 10557 4374
Neighbor list info ...
  update every 1 steps, delay 10 steps, check yes
  max neighbors/atom: 2000, page size: 100000
  master list distance cutoff = 14
  ghost atom cutoff = 14
  binsize = 7, bins = 14 14 14
  1 neighbor lists, perpetual/occasional/extra = 1 0 0
  (1) pair buck/coul/long, perpetual
      attributes: half, newton on
      pair build: half/bin/atomonly/newton
      stencil: half/bin/3d/newton
      bin: standard
Per MPI rank memory allocation (min/avg/max) = 4.13 | 4.213 | 4.586 Mbytes
Step Temp E_pair E_mol TotEng Press Lx Ly Lz Fmax CPU CPULeft 
       0          600   -239308.38            0   -236255.39   -5735.8712      93.6333      93.6333      93.6333    5.7883125            0            0 
    1000    631.98919   -272427.94            0   -269212.18   -188.79858    98.348157    99.872014    99.898305    5.0544564     6.669389    326.80011 
    2000    597.21598   -273125.75            0   -270086.92       212.26    98.312783    99.943496    99.827633    5.1677765    12.980285    311.52687 
    3000    603.19962    -273246.7            0   -270177.42    57.343025    98.313308    99.866382    99.872712    4.3730245    19.393888    303.83759 
    4000    603.00594   -273361.99            0    -270293.7    -9.944682    98.312009    99.746697    99.876298    4.7240774    26.381011    303.38164 
    5000    601.88223   -273406.19            0   -270343.62    19.402328    98.183052    99.761381    99.999534    4.3011238    33.115752    298.04178 
    6000    600.60512   -273459.06            0   -270402.99   -241.49694    98.091014     99.81666    100.00708    4.5477718    40.170088    294.58065 
    7000    601.65263   -273510.31            0   -270448.91    185.94282    98.245024    99.720284    99.908981    4.7006919    46.611838    286.32987 
    8000    598.43882   -273529.95            0    -270484.9    21.207862    98.139861    99.515172    99.986912    4.1211514    53.018714    278.34825 
    9000     601.2703   -273553.15            0   -270493.69    24.720473    97.995458    99.531457    100.06368     4.871865    59.524036    271.16506 
   10000    599.03031   -273592.64            0   -270544.58    -33.65737    98.203013    99.437169    99.980675     5.068278    66.242605    264.97042 
   11000    602.58944   -273613.05            0   -270546.88    280.05732    98.203577    99.329044     99.90052    4.2145962    72.965108    258.69448 
   12000    601.13656   -273631.77            0   -270572.99   -137.14424    98.348777    99.392997    99.886261    4.1681339    80.026583    253.41752 
   13000     599.3838   -273661.99            0   -270612.13    109.74341    98.303118    99.495524    99.661952    4.2007663    86.580153    246.42044 
   14000    599.70261   -273633.69            0   -270582.21    31.212494    98.377807    99.329095    99.632866    4.2001823     92.89298    238.86767 
   15000    601.88006    -273680.5            0   -270617.93    75.186046    98.358766    99.223586    99.640943    4.9492347    99.335537    231.78292 
   16000    601.53034   -273683.37            0   -270622.59    153.75421    98.393262      99.2353    99.593926    3.9142423    106.18023    225.63298 
   17000    603.24009   -273705.63            0   -270636.15    354.17558    98.246404    99.179941    99.549099    4.2771986    112.79996    218.96462 
   18000    600.07693   -273720.78            0   -270667.39    237.80546     98.45661    99.086667    99.524415    4.2501404    120.03629    213.39786 
   19000    599.75021   -273721.79            0   -270670.07    133.99893     98.35837    99.123307    99.548388    4.2715469    126.44114     206.2987 
   20000    598.79163    -273697.8            0   -270650.96   -44.210146    98.221652    99.258653    99.651487    4.1544742    132.93647    199.40471 
   21000    601.26917   -273722.76            0   -270663.31    20.867027    98.095856    99.022522    99.713218     4.455241     139.3473    192.43199 
   22000    598.75073   -273721.58            0   -270674.94   -161.29824    98.066477    99.114178    99.821418    4.2845136    146.24448    186.12934 
   23000    601.43409   -273763.48            0   -270703.19    115.42252     98.00893    99.146921    99.686066    4.1973548    152.90276    179.49454 
   24000    597.52852   -273726.96            0   -270686.55   -126.05006    98.122472     99.08983    99.886307    4.6327707    160.02641    173.36194 
   25000    601.00936   -273760.57            0   -270702.44    77.847419    98.126196    99.109635    99.707289    4.3195985    166.59494    166.59494 
   26000    603.41468   -273740.25            0   -270669.88    199.58974    98.032268    99.089237    99.848082    4.8775779    172.95752    159.65309 
   27000    598.35891   -273779.48            0   -270734.84   -29.948918    98.044379    99.233649    99.690479    4.1930714    179.52907    152.93217 
   28000    602.33763   -273732.31            0   -270667.42   -265.98849    97.936363    99.317044    99.920059    4.3781318    186.32307     146.3967 
   29000    596.87427   -273761.08            0   -270723.99    49.427801    97.842886    99.372256    99.855285    4.3891378    193.07647    139.81399 
   30000    598.45316   -273785.76            0   -270740.63    -29.98685    97.746882    99.559757    99.844978    4.7503942    200.17277    133.44852 
   31000    600.52448   -273766.12            0   -270710.46    24.654334    98.010226    99.402392    99.725228    4.1241613    206.69475    126.68388 
   32000    597.67291    -273772.8            0   -270731.65    95.960952    97.932644    99.426087    99.668045    4.2742709    213.20886    119.92998 
   33000    602.23717   -273774.32            0   -270709.94    53.035448    98.026652    99.422693    99.562259    5.0563555    219.73313    113.19585 
   34000    598.43741   -273770.35            0   -270725.31   -301.70436     97.99833    99.377445    99.756271    4.9367016    226.58417    106.62785 
   35000    604.52806   -273780.21            0   -270704.18   -47.176543    97.957422    99.284316    99.738195    4.4060656    233.18146    99.934911 
   36000    601.06639   -273811.14            0   -270752.72   -60.250383    97.790633    99.205281    99.806946    4.1461708    240.24646    93.429178 
   37000    596.82431   -273805.33            0   -270768.49    63.639551    97.983359    99.228275    99.600356    4.8417608    246.74857    86.695443 
   38000    606.60019   -273781.68            0    -270695.1   -96.043999     97.94681     99.29324    99.531141    4.4434122    253.11917     79.93237 
   39000    597.85276   -273794.66            0   -270752.59   -182.01629    98.072637    99.256388     99.52688    4.5241494    259.53535    73.202278 
   40000    599.54501   -273810.79            0   -270760.11   -100.15494    98.034436    99.127626    99.603131    4.4800591    266.41169    66.602923 
   41000    598.27378   -273820.24            0   -270776.03   -181.32587    97.989801    99.409823    99.487665    4.2830575     273.0994     59.94865 
   42000    599.16087   -273813.38            0   -270764.65   -102.82149    97.897915    99.278276    99.567873    4.4042179    280.25871    53.382611 
   43000    596.26566   -273796.95            0   -270762.96   -348.58587     97.99926     99.29418    99.604922     4.207319    286.76549    46.682754 
   44000    604.01785   -273811.92            0   -270738.48   -249.33618    97.980791    99.401096    99.506482    3.9691526    293.10295    39.968584 
   45000    598.97055   -273820.46            0   -270772.71   -50.080125     97.94552    99.319011    99.446307    4.3908935    299.64558    33.293953 
   46000    602.63315   -273805.42            0   -270739.02    -231.0721    98.016847    99.298418    99.501775     3.978851    306.52589    26.654426 
   47000    598.18279   -273831.32            0   -270787.58    96.879379    97.851593    99.325167    99.570146    4.0132764    313.14416    19.987925 
   48000    599.15434   -273797.13            0   -270748.44   -103.32385    97.998956    99.234621    99.457406    4.4445641    320.31601      13.3465 
   49000    596.43362   -273838.63            0   -270803.78    28.454956    97.938154    99.129069    99.607364    4.2079837    326.94373     6.672321 
   50000    600.68685   -273808.77            0   -270752.28   -203.60777     98.17083    99.191107    99.471576    4.7258894    333.35135            0 
Loop time of 333.351 on 160 procs for 50000 steps with 39366 atoms

Performance: 12.959 ns/day, 1.852 hours/ns, 149.992 timesteps/s
98.9% CPU use with 160 MPI tasks x 1 OpenMP threads

MPI task timing breakdown:
Section |  min time  |  avg time  |  max time  |%varavg| %total
---------------------------------------------------------------
Pair    | 67.366     | 75.384     | 88.033     |  50.9 | 22.61
Kspace  | 176.3      | 189.07     | 197.32     |  33.4 | 56.72
Neigh   | 2.1584     | 2.3471     | 2.6962     |   7.2 |  0.70
Comm    | 29.275     | 31.353     | 32.354     |  11.4 |  9.41
Output  | 0.0032845  | 0.0033334  | 0.0044527  |   0.2 |  0.00
Modify  | 26.148     | 27.884     | 33.618     |  29.9 |  8.36
Other   |            | 7.306      |            |       |  2.19

Nlocal:    246.037 ave 265 max 228 min
Histogram: 1 6 20 22 36 38 17 12 6 2
Nghost:    3886.32 ave 3960 max 3825 min
Histogram: 3 9 17 30 41 27 17 13 2 1
Neighs:    57355.4 ave 64549 max 51734 min
Histogram: 5 15 20 28 30 32 17 8 3 2

Total # of neighbors = 9176866
Ave neighs/atom = 233.117
Neighbor list builds = 1861
Dangerous builds = 9

# Stage 1: nvt_equilibriation
unfix           int
restart         0
fix             int all nvt temp ${T1} ${T1} $(100*dt)
fix             int all nvt temp 600 ${T1} $(100*dt)
fix             int all nvt temp 600 600 $(100*dt)
fix             int all nvt temp 600 600 0.10000000000000000555
run             50000
PPPM initialization ...
  using 12-bit tables for long-range coulomb (../kspace.cpp:323)
  G vector (1/distance) = 0.267004
  grid = 90 90 90
  stencil order = 5
  estimated absolute RMS force accuracy = 0.000138774
  estimated relative force accuracy = 9.63732e-06
  using double precision MKL FFT
  3d grid and FFT values/proc = 13050 4968
Per MPI rank memory allocation (min/avg/max) = 4.365 | 4.47 | 4.82 Mbytes
Step Temp E_pair E_mol TotEng Press Lx Ly Lz Fmax CPU CPULeft 
   50000    600.68685   -273808.86            0   -270752.37   -204.52381     98.17083    99.191107    99.471576    4.7257379            0            0 
   51000     600.7582   -273822.87            0   -270766.02   -50.822133     98.17083    99.191107    99.471576    4.1952495     6.582144    322.52506 
   52000    599.10862    -273846.3            0   -270797.84    324.78911     98.17083    99.191107    99.471576    5.0311985    13.402311    321.65549 
   53000    599.52469   -273819.18            0    -270768.6    35.488759     98.17083    99.191107    99.471576    4.8653965    20.233174    316.98641 
   54000    598.15448   -273850.38            0   -270806.77    -158.5922     98.17083    99.191107    99.471576    4.5338175    27.324685    314.23388 
   55000    601.47089   -273825.84            0   -270765.36   -36.620196     98.17083    99.191107    99.471576    4.2409336      33.8508    304.65721 
   56000    601.50311   -273842.43            0   -270781.79    27.790269     98.17083    99.191107    99.471576    4.3368996     40.36704    296.02497 
   57000    597.28321   -273840.23            0   -270801.06    -64.83826     98.17083    99.191107    99.471576    4.3540307    46.910678     288.1656 
   58000    600.79085   -273830.53            0   -270773.51   -199.68624     98.17083    99.191107    99.471576     5.004787    53.772223    282.30418 
   59000    602.77536   -273855.89            0   -270788.77   -72.519331     98.17083    99.191107    99.471576      4.87419    60.484448    275.54027 
   60000    601.52294   -273859.98            0   -270799.24   -131.58874     98.17083    99.191107    99.471576    4.3497051     67.61653    270.46612 
   61000    599.74454    -273841.4            0    -270789.7   -130.35563     98.17083    99.191107    99.471576     4.426357    74.117574    262.78049 
   62000    600.65652   -273835.57            0   -270779.24   -196.28821     98.17083    99.191107    99.471576    4.1269354    80.615174    255.28138 
   63000    596.51316   -273835.43            0   -270800.18   -407.78416     98.17083    99.191107    99.471576    4.4293126    87.169176    248.09689 
   64000    602.61695   -273857.01            0    -270790.7    189.29418     98.17083    99.191107    99.471576    5.7092936    94.000496    241.71556 
   65000     601.0057   -273851.84            0   -270793.73   -14.054625     98.17083    99.191107    99.471576    4.9984289     100.6615    234.87683 
   66000    597.88675   -273841.77            0   -270799.53   -88.417208     98.17083    99.191107    99.471576    4.4834399    107.78853    229.05062 
   67000    605.81608   -273844.28            0   -270761.69    62.832211     98.17083    99.191107    99.471576    4.3725565    114.34522    221.96425 
   68000    596.13982   -273835.57            0   -270802.22   -18.014511     98.17083    99.191107    99.471576    4.6966956    120.89677    214.92759 
   69000    602.16646   -273833.94            0   -270769.92    67.722246     98.17083    99.191107    99.471576    4.8634787    127.48131    207.99583 
   70000    598.70402   -273843.59            0   -270797.18   -228.21708     98.17083    99.191107    99.471576    5.0172881    134.27672    201.41508 
   71000    602.94289   -273840.63            0   -270772.66    -360.3526     98.17083    99.191107    99.471576     5.269089    140.98738    194.69686 
   72000    603.02372   -273847.08            0   -270778.69    -145.4929     98.17083    99.191107    99.471576    4.2662383    148.08006    188.46553 
   73000     601.2842   -273787.04            0   -270727.51   -202.19472     98.17083    99.191107    99.471576     4.505841    154.55586    181.43514 
   74000    598.76482   -273840.85            0   -270794.14   -25.534246     98.17083    99.191107    99.471576    4.8104129    161.07819    174.50138 
   75000    601.78975   -273827.65            0   -270765.55    130.84733     98.17083    99.191107    99.471576    4.4194478    167.61708    167.61708 
   76000    599.61326   -273865.11            0   -270814.08    -207.3264     98.17083    99.191107    99.471576    4.6739976    174.38422    160.97005 
   77000    596.12232   -273838.08            0   -270804.82   -63.558698     98.17083    99.191107    99.471576    4.5426228    181.05531     154.2323 
   78000    597.14762   -273847.97            0   -270809.49   -246.01136     98.17083    99.191107    99.471576    4.2773353    188.16857    147.84674 
   79000    601.92405   -273856.93            0   -270794.14    94.724616     98.17083    99.191107    99.471576    3.9111882    194.68065    140.97564 
   80000    601.88148    -273824.2            0   -270761.63   -228.76276     98.17083    99.191107    99.471576    4.3151376    201.14719    134.09813 
   81000    597.51054   -273838.98            0   -270798.65   -3.2834562     98.17083    99.191107    99.471576    5.8306288    207.78709    127.35338 
   82000    600.02769    -273872.1            0   -270818.97   -221.81365     98.17083    99.191107    99.471576    4.6418741    214.63526    120.73233 
   83000    599.16871   -273816.12            0   -270767.36   -77.575617     98.17083    99.191107    99.471576    4.3494305     221.3537     114.0307 
   84000    600.98386   -273850.65            0   -270792.64   -280.73753     98.17083    99.191107    99.471576    4.0411766    228.32555    107.44732 
   85000    599.39438   -273836.45            0   -270786.54   -6.7568425     98.17083    99.191107    99.471576    4.1837294    234.88412    100.66462 
   86000    598.47278   -273808.28            0   -270763.06    138.18367     98.17083    99.191107    99.471576    4.4562698    241.31393    93.844307 
   87000    598.13936   -273853.23            0    -270809.7   -338.11806     98.17083    99.191107    99.471576    4.5178897     247.8204    87.072032 
   88000    596.62043   -273839.79            0   -270803.99   -235.87143     98.17083    99.191107    99.471576    4.1551904    254.56953    80.390379 
   89000    599.37982   -273843.38            0   -270793.54   -257.98734     98.17083    99.191107    99.471576    4.6407002    261.27974    73.694286 
   90000    602.83503   -273847.96            0   -270780.54   -13.317751     98.17083    99.191107    99.471576    4.5723521    268.26654    67.066634 
   91000    597.54639   -273868.75            0   -270828.24   -524.40435     98.17083    99.191107    99.471576      4.35375     274.7726    60.315938 
   92000    603.59496   -273884.13            0   -270812.84   -128.78343     98.17083    99.191107    99.471576    4.4217347    281.21758    53.565253 
   93000    599.75167    -273877.1            0   -270825.37    8.0188985     98.17083    99.191107    99.471576     4.704472     287.7853    46.848769 
   94000    596.73441   -273860.34            0   -270823.96   -207.84691     98.17083    99.191107    99.471576     5.245725    294.69261    40.185356 
   95000    600.46132   -273884.26            0   -270828.91   -19.440278     98.17083    99.191107    99.471576    5.0828831    301.33186    33.481318 
   96000    601.94603    -273838.5            0    -270775.6   -410.16317     98.17083    99.191107    99.471576    4.4488567    308.38766    26.816318 
   97000    598.62986   -273844.78            0   -270798.75   -147.81425     98.17083    99.191107    99.471576    4.8197421    314.88522    20.099057 
   98000    602.50053   -273851.65            0   -270785.93    116.13544     98.17083    99.191107    99.471576    4.1037604    321.33612    13.389005 
   99000    604.29615   -273883.09            0   -270808.24   -398.62108     98.17083    99.191107    99.471576     4.408183    327.94842    6.6928248 
  100000    598.93486   -273866.69            0   -270819.11   -335.42946     98.17083    99.191107    99.471576    4.4815966    334.81197            0 
Loop time of 334.812 on 160 procs for 50000 steps with 39366 atoms

Performance: 12.903 ns/day, 1.860 hours/ns, 149.338 timesteps/s
98.9% CPU use with 160 MPI tasks x 1 OpenMP threads

MPI task timing breakdown:
Section |  min time  |  avg time  |  max time  |%varavg| %total
---------------------------------------------------------------
Pair    | 67.324     | 75.325     | 87.893     |  46.4 | 22.50
Kspace  | 206.41     | 220.25     | 230.01     |  31.0 | 65.78
Neigh   | 2.0819     | 2.2672     | 2.594      |   7.1 |  0.68
Comm    | 26.667     | 30.513     | 36.299     |  34.3 |  9.11
Output  | 0.0034165  | 0.0034472  | 0.0041499  |   0.1 |  0.00
Modify  | 4.9694     | 5.6748     | 6.2267     |  10.5 |  1.69
Other   |            | 0.7828     |            |       |  0.23

Nlocal:    246.037 ave 267 max 229 min
Histogram: 4 13 16 31 30 30 24 8 3 1
Nghost:    3887.51 ave 3937 max 3801 min
Histogram: 2 0 3 8 16 33 41 29 20 8
Neighs:    57363.1 ave 64109 max 51470 min
Histogram: 6 9 15 31 29 28 19 17 5 1

Total # of neighbors = 9178093
Ave neighs/atom = 233.148
Neighbor list builds = 1817
Dangerous builds = 0

# Stage 2: main_nvt_simulation
unfix           int
compute         lithiummsd lithium msd com yes
compute         scandiummsd scandium msd com yes
compute         chloridemsd chloride msd com yes
fix             lithiummsdt lithium ave/time 1 1 1000 c_lithiummsd[4] file triclinic_9x9x9_600_li.txt
fix             scandiummymsdt scandium ave/time 1 1 1000 c_scandiummsd[4] file triclinic_9x9x9_600_sc.txt
fix             chloridemymsdt chloride ave/time 1 1 1000 c_chloridemsd[4] file triclinic_9x9x9_600_cl.txt
dump            atom_info all custom 1000 triclinic_9x9x9_600.lammpstrj element x y z q id type vx vy vz
dump_modify     atom_info append yes
dump_modify     atom_info sort id
dump_modify     atom_info element Li Sc Cl
restart         0
fix             int all nvt temp ${T1} ${T1} $(100*dt)
fix             int all nvt temp 600 ${T1} $(100*dt)
fix             int all nvt temp 600 600 $(100*dt)
fix             int all nvt temp 600 600 0.10000000000000000555
run             16000000
PPPM initialization ...
  using 12-bit tables for long-range coulomb (../kspace.cpp:323)
  G vector (1/distance) = 0.267004
  grid = 90 90 90
  stencil order = 5
  estimated absolute RMS force accuracy = 0.000138774
  estimated relative force accuracy = 9.63732e-06
  using double precision MKL FFT
  3d grid and FFT values/proc = 13050 4968
Per MPI rank memory allocation (min/avg/max) = 6.8 | 6.913 | 7.255 Mbytes
Step Temp E_pair E_mol TotEng Press Lx Ly Lz Fmax CPU CPULeft 
  100000    598.93486   -273866.69            0   -270819.11   -335.42946     98.17083    99.191107    99.471576    4.4815966            0            0 
  101000     599.9326   -273871.47            0   -270818.81    -202.7019     98.17083    99.191107    99.471576    4.1132788     6.655596     106482.9 
  102000     605.3672   -273847.36            0   -270767.05   -205.31165     98.17083    99.191107    99.471576     4.353384    13.635341     109069.1 
  103000    599.04388   -273864.75            0   -270816.62   -366.46266     98.17083    99.191107    99.471576    4.4843694    20.119019    107281.32 
  104000    596.51589   -273848.77            0    -270813.5   -106.77682     98.17083    99.191107    99.471576    4.8007316    26.664601    106631.74 
  105000    602.85385    -273884.9            0   -270817.38   -296.08603     98.17083    99.191107    99.471576    4.4155965     33.25919    106396.15 
  106000    600.23012   -273865.67            0    -270811.5   -184.99616     98.17083    99.191107    99.471576    4.4329345    40.068203    106808.48 
  107000    598.60657    -273850.7            0   -270804.79   -30.122004     98.17083    99.191107    99.471576    5.2759102    46.777316     106872.8 
  108000    597.41486    -273845.3            0   -270805.46   -239.29007     98.17083    99.191107    99.471576    5.1888705    53.693443    107333.19 
  109000    600.39021   -273867.53            0   -270812.55   -203.10776     98.17083    99.191107    99.471576    4.3515401    60.121077     106821.8 
  110000    597.49442   -273871.81            0   -270831.56    -166.1367     98.17083    99.191107    99.471576    5.1362486     66.58814    106474.44 
  111000    598.80858   -273877.03            0   -270830.09   -146.88198     98.17083    99.191107    99.471576     4.183861     73.12092    106284.58 
  112000    600.95989   -273867.64            0   -270809.76    4.9720667     98.17083    99.191107    99.471576    3.9689691    80.039594    106639.42 
  113000    603.32868   -273864.16            0   -270794.23   -168.82155     98.17083    99.191107    99.471576    4.1707366    86.713792    106637.95 
  114000     601.0145    -273852.5            0   -270794.35   -159.83189     98.17083    99.191107    99.471576    4.1614537    93.648859    106933.62 
  115000    598.53395   -273869.48            0   -270823.94    24.385314     98.17083    99.191107    99.471576    4.5345438    100.18231    106760.95 
  116000    597.67284   -273842.75            0   -270801.59    38.402122     98.17083    99.191107    99.471576    4.7573314    106.61054    106503.93 
  117000     593.4664   -273875.48            0   -270855.72   -84.002813     98.17083    99.191107    99.471576     4.802697    113.15061    106381.55 
  118000    600.36143   -273850.09            0   -270795.25   -38.597897     98.17083    99.191107    99.471576    4.3768108    119.91434    106470.61 
  119000    598.04545   -273840.22            0   -270797.17   -95.312893     98.17083    99.191107    99.471576    4.4418249    126.48596       106388 
  120000    595.33064   -273861.12            0   -270831.88   -244.13811     98.17083    99.191107    99.471576     4.576019    133.47398    106645.71 
  121000    602.46919   -273840.74            0   -270775.18    -221.1641     98.17083    99.191107    99.471576    4.2487202    139.96936    106503.36 
  122000    600.38291   -273843.93            0   -270788.99   -445.12743     98.17083    99.191107    99.471576     4.248136    146.39225     106320.7 
  123000    603.46889   -273849.75            0   -270779.11   -385.04737     98.17083    99.191107    99.471576    4.0963146    152.92622    106230.53 
  124000    597.82929   -273849.94            0   -270807.99   -269.42196     98.17083    99.191107    99.471576    4.2009336    159.78746    106365.19 
  125000    601.01025   -273851.66            0   -270793.52   -174.61515     98.17083    99.191107    99.471576    6.2351386    166.40989    106335.92 
  126000    601.25421   -273861.38            0      -270802   -169.01053     98.17083    99.191107    99.471576    4.2466509    173.40722    106538.73 
  127000    604.36901   -273836.63            0    -270761.4   -364.50588     98.17083    99.191107    99.471576    4.7044506     179.8373    106390.42 
  128000    600.67992   -273848.84            0   -270792.39   -273.97607     98.17083    99.191107    99.471576    4.8336144    186.28551    106262.58 
  129000    595.20014   -273849.61            0   -270821.04   -70.737136     98.17083    99.191107    99.471576    4.1140279    192.76759    106161.77 
  130000    599.29694   -273844.92            0    -270795.5   -143.33212     98.17083    99.191107    99.471576    5.2282302    199.61119    106259.69 
  131000    603.17516   -273855.17            0   -270786.02   -81.229635     98.17083    99.191107    99.471576    4.4607946    206.26266    106251.88 
  132000    604.63713   -273865.47            0   -270788.88    -213.4274     98.17083    99.191107    99.471576    5.1793603    213.21459    106394.08 
  133000    596.08851   -273871.16            0   -270838.07   -293.89433     98.17083    99.191107    99.471576    4.7723466    219.65216    106278.36 
  134000    598.79154   -273850.42            0   -270803.58   -547.15941     98.17083    99.191107    99.471576    4.4191801    226.09608    106172.06 
  135000    601.19772   -273860.07            0   -270800.98   -241.92449     98.17083    99.191107    99.471576    4.7669426    232.60686    106101.96 
  136000    600.62091   -273870.98            0   -270814.83   -129.02549     98.17083    99.191107    99.471576    4.2091266    239.36957    106147.11 
  137000      597.445   -273860.66            0   -270820.66   -274.18412     98.17083    99.191107    99.471576    4.3811007    245.99345    106129.55 
  138000    600.73543   -273858.19            0   -270801.46   -167.30908     98.17083    99.191107    99.471576    5.6521973    253.05902    106298.11 
  139000    602.39238   -273881.57            0    -270816.4   -181.99524     98.17083    99.191107    99.471576    4.5588054    259.80644    106327.45 
  140000    601.27691   -273860.24            0   -270800.74    132.43942     98.17083    99.191107    99.471576    4.0600696    266.39034    106289.75 
  141000    601.15482   -273841.36            0   -270782.49   -643.10617     98.17083    99.191107    99.471576    4.3575574    272.88737    106219.75 
  142000    598.14671   -273884.21            0   -270840.64   -392.24605     98.17083    99.191107    99.471576    4.0960955     279.7348     106285.9 
  143000    598.21212   -273894.52            0   -270850.63   -355.98671     98.17083    99.191107    99.471576    4.6841755    286.33548     106257.1 
  144000    599.27267   -273868.58            0   -270819.28   -331.51628     98.17083    99.191107    99.471576    4.1686501    293.33423    106373.66 
  145000    597.96509   -273886.07            0   -270843.43   -238.28257     98.17083    99.191107    99.471576    4.8123441    299.75129    106278.49 
  146000    602.40484   -273877.25            0   -270812.02   -523.03021     98.17083    99.191107    99.471576    4.2180392    306.19072    106194.93 
  147000    600.59437   -273875.45            0   -270819.43   -303.26678     98.17083    99.191107    99.471576    4.5166679    312.67192    106128.83 
  148000    603.27966   -273897.03            0   -270827.35   -249.78267     98.17083    99.191107    99.471576    4.3167212    319.44513    106162.27 
  149000    602.37371   -273869.47            0    -270804.4    -318.3613     98.17083    99.191107    99.471576    4.8444383    326.06819    106145.18 
  150000    601.81263   -273891.77            0   -270829.56   -159.21875     98.17083    99.191107    99.471576      4.30912    333.06519     106247.8 
  151000    598.22555   -273875.44            0   -270831.47   -135.22492     98.17083    99.191107    99.471576     4.372581    339.49254    106167.97 
  152000    599.33046   -273879.55            0   -270829.97   -316.89001     98.17083    99.191107    99.471576     4.359785    345.97056    106106.51 
  153000     601.2633   -273882.38            0   -270822.96   -365.91608     98.17083    99.191107    99.471576    4.3678041    352.54112    106074.97 
  154000    602.18973   -273903.74            0    -270839.6   -358.62535     98.17083    99.191107    99.471576    4.8344833      359.367    106119.74 
  155000     599.2861   -273899.98            0   -270850.62   -266.52134     98.17083    99.191107    99.471576    4.5133701    365.99032    106103.92 
  156000    598.93007   -273886.92            0   -270839.37    141.79728     98.17083    99.191107    99.471576    4.9456599    372.93787    106180.74 
  157000     602.3424   -273881.95            0   -270817.04   -336.36397     98.17083    99.191107    99.471576    4.6904001    379.45085    106133.07 
  158000    605.83915   -273866.67            0   -270783.96   -270.70369     98.17083    99.191107    99.471576    4.4329713    385.83749    106052.09 
  159000     600.2637   -273885.92            0   -270831.58   -92.640357     98.17083    99.191107    99.471576    4.2899449    392.28673    105990.56 
  160000    596.62401   -273859.73            0   -270823.91   -233.44056     98.17083    99.191107    99.471576    4.2855849     399.0438    106012.64 
  161000    600.68201   -273874.39            0   -270817.93    -441.9445     98.17083    99.191107    99.471576    4.4463679    405.72297    106013.42 
  162000    600.86996   -273902.76            0   -270845.34   -357.84669     98.17083    99.191107    99.471576    4.7515084    412.75563    106104.83 
  163000    598.80674   -273900.44            0   -270853.52   -224.08297     98.17083    99.191107    99.471576    4.9693109    419.20044     106044.4 
  164000    601.01737    -273896.9            0   -270838.72   -254.86727     98.17083    99.191107    99.471576    5.5340719    425.61046    105977.01 
  165000    599.82664   -273868.88            0   -270816.77    -305.2091     98.17083    99.191107    99.471576    4.6888083    432.16452    105946.79 
  166000    602.83278   -273909.16            0   -270841.75   -263.29909     98.17083    99.191107    99.471576    4.6980423    438.99168    105983.23 
  167000    598.67299   -273887.68            0   -270841.43   -179.38964     98.17083    99.191107    99.471576    4.2622352    445.56133    105957.15 
  168000    600.89298   -273900.33            0   -270842.79    -335.6846     98.17083    99.191107    99.471576    3.9319768    452.54697    106029.09 
  169000    598.26647   -273879.21            0   -270835.04   -351.53931     98.17083    99.191107    99.471576    4.9303782    459.04857       105987 
  170000    597.46692   -273879.46            0   -270839.36   -329.73946     98.17083    99.191107    99.471576    4.2585027    465.48879    105931.95 
  171000      601.288   -273883.41            0   -270823.86   -65.634589     98.17083    99.191107    99.471576    4.4716669    472.02038    105898.77 
  172000    600.27433      -273883            0   -270828.61   -451.43163     98.17083    99.191107    99.471576    4.4931494    478.82338    105926.37 
  173000    601.86775   -273865.51            0   -270803.01   -401.95207     98.17083    99.191107    99.471576     4.130001    485.46659    105918.17 
  174000    599.33324   -273885.45            0   -270835.85    -485.7077     98.17083    99.191107    99.471576     4.105022    492.46747    105986.98 
  175000     597.5681    -273866.3            0   -270825.68   -390.76731     98.17083    99.191107    99.471576    4.4142224    499.03609       105962 
  176000     597.1973   -273874.46            0   -270835.73   -250.47597     98.17083    99.191107    99.471576    4.1045824    505.40127    105894.87 
  177000    600.54202   -273889.14            0   -270833.39    -89.20941     98.17083    99.191107    99.471576    4.3009598    511.95812    105868.95 
  178000     598.1809    -273874.2            0   -270830.46    102.19619     98.17083    99.191107    99.471576    5.3653649    518.74878    105891.26 
  179000    596.73961    -273875.4            0   -270838.99   -159.98747     98.17083    99.191107    99.471576    4.0880944    525.42196    105889.15 
  180000    600.28629   -273871.73            0   -270817.28   -354.01041     98.17083    99.191107    99.471576    5.1988139     532.3666    105940.95 
  181000    599.87616   -273891.88            0   -270839.51   -571.08712     98.17083    99.191107    99.471576    4.3839151    538.95612    105921.51 
  182000    599.47144   -273881.01            0   -270830.71   -420.99623     98.17083    99.191107    99.471576    4.6661881    545.43667    105881.23 
  183000    602.19091    -273858.3            0   -270794.16   -221.14495     98.17083    99.191107    99.471576    4.0437193    551.92761    105843.76 
  184000    598.27112   -273881.96            0   -270837.77   -22.261776     98.17083    99.191107    99.471576    4.1089175    558.66198    105853.14 
  185000    602.30091   -273850.07            0   -270785.37   -337.82705     98.17083    99.191107    99.471576    3.9162509    565.30667    105845.36 
  186000    603.31091   -273889.57            0   -270819.73   -25.038105     98.17083    99.191107    99.471576       4.4133    572.30656    105903.33 
  187000    601.00717   -273904.94            0   -270846.82   -138.43573     98.17083    99.191107    99.471576    4.6398587    578.80573    105868.23 
  188000    599.38668   -273921.15            0   -270871.27   -534.01601     98.17083    99.191107    99.471576    4.5906889    585.22312    105818.98 
  189000    600.65588   -273882.77            0   -270826.43   -250.87906     98.17083    99.191107    99.471576    4.9652887    591.79828     105798.9 
  190000    596.80088   -273897.73            0   -270861.01   -337.46061     98.17083    99.191107    99.471576    3.9793731    598.56094    105812.27 
  191000    598.35615   -273879.96            0   -270835.33   -316.53104     98.17083    99.191107    99.471576    4.6088933    605.21429    105806.09 
  192000    603.93117   -273869.69            0   -270796.69   -109.00424     98.17083    99.191107    99.471576    5.3941954    612.19498     105856.5 
  193000    602.08171    -273899.5            0   -270835.91   -283.79187     98.17083    99.191107    99.471576    4.6396419    618.79857    105841.17 
  194000    601.46529   -273879.27            0   -270818.82   -545.09805     98.17083    99.191107    99.471576    4.0232782    625.25567    105801.24 
  195000    602.96755   -273891.45            0   -270823.36   -268.46237     98.17083    99.191107    99.471576    4.6645548    631.79045    105775.02 
  196000    600.23184   -273887.16            0   -270832.99   -131.72772     98.17083    99.191107    99.471576    4.5563728    638.57371    105790.38 
  197000    600.07091   -273878.63            0   -270825.27   -389.81113     98.17083    99.191107    99.471576    4.1994066    645.21714    105782.35 
  198000    600.90464   -273884.95            0   -270827.35   -250.96106     98.17083    99.191107    99.471576     5.148208    652.13379    105818.69 
  199000    598.76469    -273888.7            0   -270841.99   -408.31538     98.17083    99.191107    99.471576    4.9619916    658.67278    105793.49 
  200000    601.48441   -273872.91            0   -270812.36   -390.19185     98.17083    99.191107    99.471576    4.9749249     665.1557    105759.76 
  201000    600.62317   -273895.73            0   -270839.56   -158.72487     98.17083    99.191107    99.471576    5.0558536    671.61623    105723.03 
  202000    597.98166   -273858.81            0   -270816.08   -433.27838     98.17083    99.191107    99.471576    4.0800138    678.41723    105739.97 
  203000    602.26271   -273884.57            0   -270820.06   -438.46013     98.17083    99.191107    99.471576    4.8121101    685.12145    105741.51 
  204000    597.30481   -273894.98            0    -270855.7   -508.85977     98.17083    99.191107    99.471576    4.3790797    692.17237    105795.88 
  205000    599.16587   -273863.89            0   -270815.14    -432.7577     98.17083    99.191107    99.471576    5.2445993    698.68966    105768.31 
  206000    599.05972   -273866.54            0   -270818.32   -296.71651     98.17083    99.191107    99.471576    4.9229925    705.11899    105727.94 
  207000      599.135   -273873.95            0   -270825.36   -499.33092     98.17083    99.191107    99.471576    4.3746451      711.619     105698.7 
  208000    604.20214   -273878.81            0   -270804.43   -206.60689     98.17083    99.191107    99.471576    4.5325811    718.37617    105707.72 
  209000    599.48066   -273888.46            0   -270838.11   -478.96315     98.17083    99.191107    99.471576    4.8572403    725.03483     105702.1 
  210000    601.33766   -273900.26            0   -270840.46   -367.90827     98.17083    99.191107    99.471576    4.4029459    732.01315    105742.63 
  211000    601.37724   -273859.39            0   -270799.39    -314.0639     98.17083    99.191107    99.471576    4.8898575    738.55326    105719.57 
  212000    600.87779   -273907.49            0   -270850.02   -226.27649     98.17083    99.191107    99.471576    4.3922084    745.00681    105684.54 
  213000    600.22925   -273870.01            0   -270815.85    -339.1014     98.17083    99.191107    99.471576    4.4508895    751.43587    105646.56 
  214000     598.6897   -273880.59            0   -270834.26   -231.14278     98.17083    99.191107    99.471576    4.5941438    758.18914    105654.32 
  215000    595.86509   -273895.94            0   -270863.98   -422.39807     98.17083    99.191107    99.471576    4.6995451    764.79544    105641.53 
  216000    598.96122   -273893.81            0    -270846.1   -447.91095     98.17083    99.191107    99.471576    4.7943187    771.70467    105670.32 
  217000    602.69328   -273888.84            0   -270822.14   -13.921492     98.17083    99.191107    99.471576    4.4298486     778.2368    105647.31 
  218000    598.12499   -273879.25            0    -270835.8   -350.51223     98.17083    99.191107    99.471576    4.4516069    784.58123    105599.31 
  219000    601.51105   -273883.82            0   -270823.13   -257.92246     98.17083    99.191107    99.471576    5.6355407    790.99434    105561.19 
  220000    601.31346   -273899.89            0   -270840.21   -302.98552     98.17083    99.191107    99.471576    4.5230582    797.71428    105564.19 
  221000    596.65627   -273920.97            0   -270884.99   -390.73684     98.17083    99.191107    99.471576    5.8651024    804.34729    105555.63 
  222000    599.43645   -273884.15            0   -270834.02    -213.1407     98.17083    99.191107    99.471576    4.7007999    811.23684    105580.48 
  223000      601.561   -273882.06            0   -270821.12   -345.16157     98.17083    99.191107    99.471576     5.180315    817.82579    105566.02 
  224000    601.42527   -273888.88            0   -270828.64   -276.52688     98.17083    99.191107    99.471576    5.2442902    824.21425    105526.01 
  225000    595.62814   -273865.85            0    -270835.1   -392.32156     98.17083    99.191107    99.471576    3.8782503    830.77529    105508.46 
  226000    603.00324   -273871.84            0   -270803.57   -171.82586     98.17083    99.191107    99.471576    4.3755226    837.52599    105514.98 
  227000    596.93401   -273870.97            0   -270833.57   -215.43685     98.17083    99.191107    99.471576    4.5771545    844.16269    105507.04 
  228000    600.31245   -273858.41            0   -270803.82   -128.92809     98.17083    99.191107    99.471576    4.2897666    851.10503    105537.02 
  229000    598.27252   -273900.07            0   -270855.86   -261.71149     98.17083    99.191107    99.471576    4.1274435    857.91567    105550.23 
  230000    599.05145   -273872.32            0   -270824.15   -618.22744     98.17083    99.191107    99.471576    5.2061268    864.33772    105515.69 
  231000    598.91446   -273905.49            0   -270858.02   -184.05116     98.17083    99.191107    99.471576    3.9858677    870.82806    105489.85 
  232000    599.86798   -273884.09            0   -270831.77   -294.60342     98.17083    99.191107    99.471576    4.2172606    877.56364    105493.79 
  233000    601.59711   -273879.16            0   -270818.03   -229.74472     98.17083    99.191107    99.471576    4.5669137    884.20487    105486.31 
  234000    595.14813    -273889.9            0   -270861.59   -325.96874     98.17083    99.191107    99.471576    4.6578585    891.15047    105514.88 
  235000    599.80441   -273882.55            0   -270830.55   -81.101447     98.17083    99.191107    99.471576    4.6435075    897.76849    105504.42 
  236000    599.11934   -273902.75            0   -270854.23   -266.94455     98.17083    99.191107    99.471576    4.4362628    904.15086    105466.54 
  237000     600.1595   -273902.16            0   -270848.35   -306.23695     98.17083    99.191107    99.471576    4.0412634    910.65281    105442.96 
  238000    599.89287   -273907.34            0   -270854.89   -258.78399     98.17083    99.191107    99.471576    4.5400187    917.59309    105470.01 
  239000    596.53138   -273880.34            0   -270844.99   -93.785207     98.17083    99.191107    99.471576    5.9064465    924.21174    105459.87 
  240000    601.50083   -273891.63            0      -270831    116.95602     98.17083    99.191107    99.471576     4.716161    931.07974    105478.03 
  241000    600.99974   -273899.86            0   -270841.77   -298.07336     98.17083    99.191107    99.471576    6.0922753    937.74467       105473 
  242000    602.34983   -273894.23            0   -270829.28   -233.57256     98.17083    99.191107    99.471576    4.8980742    944.12474    105436.13 
  243000    601.17435   -273921.58            0   -270862.61   -352.21582     98.17083    99.191107    99.471576    4.7116461    950.55331    105405.06 
  244000    598.19313   -273907.85            0   -270864.04   -378.64502     98.17083    99.191107    99.471576    4.8520674    957.25837    105404.78 
  245000    598.30973   -273883.15            0   -270838.75   -566.56186     98.17083    99.191107    99.471576    4.1768962    963.97453    105405.63 
  246000    600.09609   -273888.23            0   -270834.74   -376.15441     98.17083    99.191107    99.471576    4.5112941    970.80253    105418.52 
  247000    597.54728   -273910.55            0   -270870.03   -265.60215     98.17083    99.191107    99.471576    4.3875949    977.43547     105410.1 
  248000    601.98391   -273894.69            0    -270831.6   -322.49841     98.17083    99.191107    99.471576    4.1872981    983.89109    105382.71 
  249000    601.35704    -273920.9            0      -270861   -284.94752     98.17083    99.191107    99.471576    4.4515899    990.34377     105355.3 
  250000    602.73117   -273881.58            0   -270814.68   -260.46052     98.17083    99.191107    99.471576    4.2901513    997.11186    105361.49 
  251000    602.11502   -273903.98            0   -270840.22   -494.68786     98.17083    99.191107    99.471576    4.6803042    1003.7961     105358.7 
  252000    595.99501   -273926.34            0   -270893.72   -161.14116     98.17083    99.191107    99.471576    4.1371727     1010.743    105383.26 
  253000    601.27014   -273912.13            0   -270852.67   -330.59448     98.17083    99.191107    99.471576    4.1419774    1017.4493    105382.48 
  254000     600.9349   -273885.69            0   -270827.93   -34.864156     98.17083    99.191107    99.471576    4.7401094    1023.8248    105347.58 
  255000    596.70352   -273893.14            0   -270856.91   -280.99298     98.17083    99.191107    99.471576    4.3357249    1030.2279    105315.87 
  256000    600.76841   -273900.13            0   -270843.22    248.95723     98.17083    99.191107    99.471576    4.5214524    1036.9751    105319.45 
  257000    598.92204   -273921.77            0   -270874.26    -30.47835     98.17083    99.191107    99.471576    4.5252721     1043.637    105314.27 
  258000     599.4959    -273897.6            0   -270847.17   -226.99304     98.17083    99.191107    99.471576    5.0171558    1050.5258    105331.83 
  259000    599.77724   -273934.41            0   -270882.55   -300.33534     98.17083    99.191107    99.471576    5.6858218    1057.1161    105319.35 
  260000    601.73927   -273913.79            0   -270851.94   -100.23322     98.17083    99.191107    99.471576    4.4004815    1063.5415     105290.6 
  261000    595.51853   -273902.41            0   -270872.22   -265.77635     98.17083    99.191107    99.471576     4.398117    1069.9479    105260.28 
  262000     602.0748   -273894.79            0   -270831.23    185.01403     98.17083    99.191107    99.471576    4.8847983    1076.6404    105258.22 
  263000     603.4741   -273896.68            0   -270826.01    26.003901     98.17083    99.191107    99.471576    4.3479231    1083.3806    105260.72 
  264000     597.3495   -273910.19            0   -270870.68   -168.71602     98.17083    99.191107    99.471576    4.3612109    1090.3637    105286.59 
  265000    599.43978   -273894.53            0   -270844.38   -288.85899     98.17083    99.191107    99.471576     4.138745     1097.032    105281.83 
  266000    599.01263   -273919.88            0   -270871.91   -612.20706     98.17083    99.191107    99.471576    4.4807646    1103.4744     105255.5 
  267000    600.91374   -273901.75            0   -270844.11   -185.58626     98.17083    99.191107    99.471576    5.0841437    1109.9263    105230.32 
  268000    596.76522   -273884.51            0   -270847.98   -135.07783     98.17083    99.191107    99.471576    4.2440488    1116.7013     105235.8 
  269000    600.36324   -273873.27            0   -270818.42   -188.97028     98.17083    99.191107    99.471576    4.1667643     1123.355    105229.78 
  270000    599.31976    -273922.9            0   -270873.37   -239.69006     98.17083    99.191107    99.471576    4.2603425    1130.2424    105245.52 
  271000    603.09245   -273897.15            0   -270828.42   -69.481889     98.17083    99.191107    99.471576    5.0964631     1136.971    105246.28 
  272000    601.29315   -273895.63            0   -270836.06   -209.33037     98.17083    99.191107    99.471576    4.1038441    1143.3715    105216.77 
  273000    597.64195   -273904.03            0   -270863.04   -303.41349     98.17083    99.191107    99.471576    4.2523562    1149.8514    105194.78 
  274000    603.04093    -273906.4            0   -270837.93    -328.1017     98.17083    99.191107    99.471576    4.1701745    1156.5643    105194.17 
  275000    599.34122   -273892.29            0   -270842.64   -385.25235     98.17083    99.191107    99.471576    5.1030349    1163.1986    105186.39 
  276000    602.28474   -273893.94            0   -270829.32   -89.388275     98.17083    99.191107    99.471576    4.0892965    1170.0096     105194.5 
  277000    605.16123   -273923.28            0   -270844.03   -92.768405     98.17083    99.191107    99.471576      4.21787    1176.6558    105187.71 
  278000    594.16619   -273896.42            0   -270873.11   -60.806366     98.17083    99.191107    99.471576    4.2615634    1182.9979    105153.89 
  279000    599.41107   -273908.12            0   -270858.12   -108.64516     98.17083    99.191107    99.471576    4.8376521    1189.4189    105127.35 
  280000    599.68995   -273898.26            0   -270846.84   -718.74402     98.17083    99.191107    99.471576    4.2743164    1196.0921     105123.2 
  281000    600.15519   -273896.55            0   -270842.76   -176.73723     98.17083    99.191107    99.471576    4.5774881     1202.746    105117.34 
  282000     597.5673   -273904.46            0   -270863.84   -246.86035     98.17083    99.191107    99.471576     4.747641     1209.546    105124.17 
  283000    597.63642   -273919.53            0   -270878.56   -112.92235     98.17083    99.191107    99.471576    4.4473652    1216.2232    105120.23 
  284000     599.3161   -273911.65            0   -270862.13   -443.75781     98.17083    99.191107    99.471576    4.3250391    1222.6462    105094.42 
  285000     600.8368   -273915.85            0    -270858.6    -160.4167     98.17083    99.191107    99.471576    4.2065085    1229.0322    105065.65 
  286000    605.20052   -273916.52            0   -270837.06    -145.3235     98.17083    99.191107    99.471576    4.8746027    1235.7454    105064.93 
  287000    602.10108   -273910.97            0   -270847.29    26.134751     98.17083    99.191107    99.471576     4.619627    1242.4702    105065.14 
  288000    598.51406   -273894.83            0    -270849.4   -352.82953     98.17083    99.191107    99.471576    4.3589269    1249.3109    105075.02 
  289000    597.37435   -273911.77            0   -270872.13    15.916302     98.17083    99.191107    99.471576    4.6480825    1256.1283    105082.77 
  290000    601.14618   -273914.42            0   -270855.59    -413.5386     98.17083    99.191107    99.471576    4.4326018    1262.5887    105060.67 
  291000    597.35631   -273906.01            0   -270866.47   -94.748616     98.17083    99.191107    99.471576    4.7928316    1269.0123    105035.68 
  292000    603.24612   -273903.59            0   -270834.07   -197.36117     98.17083    99.191107    99.471576    3.7743353    1275.6846    105031.37 
  293000    603.71335   -273898.47            0   -270826.58   -250.15183     98.17083    99.191107    99.471576    4.2340188    1282.4651    105035.88 
  294000    600.68465   -273905.02            0   -270848.54   -8.5293524     98.17083    99.191107    99.471576    4.4314439    1289.2627    105041.68 
  295000    598.08737   -273917.84            0   -270874.58   -218.45184     98.17083    99.191107    99.471576    4.0873496    1296.0274    105044.68 
  296000    600.52855   -273901.06            0   -270845.38   -370.00869     98.17083    99.191107    99.471576    4.6313286    1302.4718    105021.76 
  297000    599.27585   -273933.25            0   -270883.94   -336.34229     98.17083    99.191107    99.471576    4.3934995    1309.0103    105006.55 
  298000    603.23704   -273910.66            0   -270841.19   -33.517277     98.17083    99.191107    99.471576     5.580321    1315.6639    105000.61 
  299000    599.18629   -273934.49            0   -270885.64   -268.58576     98.17083    99.191107    99.471576    4.9801136    1322.4178    105002.63 
  300000    604.24688    -273932.9            0   -270858.29   -73.315707     98.17083    99.191107    99.471576    3.9180333    1329.2034    105007.06 
  301000    603.24977   -273937.54            0   -270868.01   -379.81691     98.17083    99.191107    99.471576    4.1407123    1335.9751     105010.3 
  302000    599.84702   -273938.56            0   -270886.34   -103.47553     98.17083    99.191107    99.471576    3.9729872    1342.4848    104992.95 
  303000    596.49213   -273944.46            0   -270909.31   -329.74095     98.17083    99.191107    99.471576    4.3471243    1348.9336    104970.96 
  304000    596.24732   -273931.57            0   -270897.67    22.137118     98.17083    99.191107    99.471576    4.0350329    1355.5629     104963.1 
  305000    602.13636   -273914.88            0   -270851.02   -172.33082     98.17083    99.191107    99.471576    4.6254893     1362.365    104968.56 
  306000    598.56107   -273927.53            0   -270881.86   -144.23763     98.17083    99.191107    99.471576    4.4542173    1369.1483    104972.47 
  307000    603.87122   -273932.23            0   -270859.54   -89.317421     98.17083    99.191107    99.471576    4.6770909    1375.9203    104975.41 
  308000    599.56493   -273935.98            0    -270885.2   -257.32296     98.17083    99.191107    99.471576    4.4501861    1382.3641    104953.33 
  309000     603.6668   -273919.93            0   -270848.28   -69.068393     98.17083    99.191107    99.471576    4.2438861    1388.8439    104934.13 
  310000    601.13854   -273938.72            0   -270879.93   -27.011759     98.17083    99.191107    99.471576    4.4127552    1395.5037    104928.59 
  311000    601.34415   -273910.61            0   -270850.78   -34.550321     98.17083    99.191107    99.471576    4.8669699    1402.2914     104932.6 
  312000    601.31431   -273931.32            0   -270871.63   -257.05898     98.17083    99.191107    99.471576    5.1030445    1409.0956    104937.74 
  313000    601.10776      -273926            0   -270867.37   -345.74358     98.17083    99.191107    99.471576    4.6307878    1415.9479    104946.34 
  314000    596.23294   -273932.21            0   -270898.39   -490.67239     98.17083    99.191107    99.471576     4.524451    1422.4013    104925.36 
  315000    602.62961   -273935.86            0   -270869.48   -189.60389     98.17083    99.191107    99.471576    4.9849888    1428.8363    104903.17 
  316000    601.66319   -273941.06            0    -270879.6   -464.04421     98.17083    99.191107    99.471576    5.0013899    1435.4469    104893.95 
  317000    601.94761   -273915.51            0    -270852.6   -174.20822     98.17083    99.191107    99.471576     4.458227    1442.1375    104890.58 
  318000     598.0349   -273930.07            0   -270887.07    -367.7639     98.17083    99.191107    99.471576    4.8842243    1448.8806    104890.98 
  319000    598.52077   -273945.65            0   -270900.18   -381.87641     98.17083    99.191107    99.471576    5.0061313      1455.92    104912.66 
  320000    599.73527   -273926.41            0   -270874.76   -60.404526     98.17083    99.191107    99.471576    4.5591224    1462.3999    104893.96 
  321000    598.64786   -273911.44            0   -270865.33   -101.98774     98.17083    99.191107    99.471576    5.3098743    1468.8287    104871.71 
  322000     602.4839   -273912.12            0   -270846.49   -297.21839     98.17083    99.191107    99.471576    4.2030807    1475.5874    104873.06 
  323000    600.47642   -273910.99            0   -270855.57   -523.34051     98.17083    99.191107    99.471576    5.0722525     1482.377    104876.51 
  324000    594.89146   -273919.38            0   -270892.38   -221.87676     98.17083    99.191107    99.471576    4.5362593    1489.1561    104879.14 
  325000    600.65723      -273910            0   -270853.66   -286.02841     98.17083    99.191107    99.471576    4.8661227    1496.0252    104887.99 
  326000    601.67312   -273916.15            0   -270854.64   -436.69145     98.17083    99.191107    99.471576    4.4250621    1502.4254    104863.97 
  327000    599.07554   -273889.81            0   -270841.51   -284.31795     98.17083    99.191107    99.471576    4.2804584     1508.909    104845.91 
  328000    601.35892   -273915.59            0   -270855.68   -313.81721     98.17083    99.191107    99.471576    4.4154256    1515.4969    104835.16 
  329000    602.79246   -273888.05            0   -270820.84   -268.53614     98.17083    99.191107    99.471576     4.491915     1522.243    104835.35 
  330000    601.31166   -273913.18            0   -270853.51   -105.91311     98.17083    99.191107    99.471576    5.3834682    1529.0514    104839.74 
  331000    597.84226   -273911.53            0   -270869.52    76.052218     98.17083    99.191107    99.471576    4.4899914    1535.8506    104843.41 
  332000    600.86045      -273911            0   -270853.63   -310.26049     98.17083    99.191107    99.471576    4.9602739    1542.2338    104818.72 
  333000    598.10595   -273893.88            0   -270850.52   -423.89588     98.17083    99.191107    99.471576    4.1501664    1548.6574    104796.92 
  334000    598.16154   -273917.47            0   -270873.83   -259.57556     98.17083    99.191107    99.471576    5.1001463    1555.2604    104787.33 
  335000    600.71677   -273894.62            0   -270837.98   -35.331036     98.17083    99.191107    99.471576    4.1903988    1562.0294    104788.91 
  336000     597.8192   -273899.19            0   -270857.29    52.750693     98.17083    99.191107    99.471576    4.6191001    1568.7213    104785.26 
  337000      602.721   -273913.16            0   -270846.32    252.23795     98.17083    99.191107    99.471576    4.7061223    1575.5521    104790.83 
  338000    596.70797    -273909.7            0   -270873.45   -531.69977     98.17083    99.191107    99.471576    5.0972017    1581.9703    104768.97 
  339000    598.12962   -273919.14            0   -270875.66   -238.48769     98.17083    99.191107    99.471576    4.4873481    1588.4403    104750.66 
  340000    602.33328   -273897.34            0   -270832.47   -146.91342     98.17083    99.191107    99.471576    4.6217346     1595.035    104740.63 
  341000    596.17136   -273888.77            0   -270855.26   -466.09257     98.17083    99.191107    99.471576    4.2207077     1601.815    104742.75 
  342000      596.735   -273919.17            0   -270882.78   -362.73965     98.17083    99.191107    99.471576     4.688435    1608.5477    104741.71 
  343000    598.88701   -273904.36            0   -270857.03   -201.78103     98.17083    99.191107    99.471576    4.2463884    1615.4118    104749.15 
  344000    600.42377   -273921.56            0   -270866.41    1.0664989     98.17083    99.191107    99.471576    4.4248173    1621.7803    104724.47 
  345000    596.91564   -273926.56            0   -270889.26    70.049705     98.17083    99.191107    99.471576    4.1989213    1628.1646    104700.95 
  346000    602.22829   -273919.96            0   -270855.63   -31.312611     98.17083    99.191107    99.471576    4.3715842    1634.7819     104692.5 
  347000    602.57004   -273930.01            0   -270863.94   -7.4364907     98.17083    99.191107    99.471576    4.8293117    1641.5821    104695.72 
  348000    598.62987   -273915.52            0    -270869.5    -41.41998     98.17083    99.191107    99.471576    4.3035571    1648.2995     104693.6 
  349000    600.27524   -273934.64            0   -270880.24     90.17556     98.17083    99.191107    99.471576    4.4800813    1655.2198    104704.28 
  350000     598.1614   -273915.45            0   -270871.81   -301.18689     98.17083    99.191107    99.471576     4.204559    1661.6459    104683.69 
  351000     602.5707   -273918.49            0   -270852.41   -283.01313     98.17083    99.191107    99.471576     4.773857    1668.0197    104659.93 
  352000    598.16325   -273941.29            0   -270897.64    26.869311     98.17083    99.191107    99.471576    4.0838778    1674.6069    104649.64 
  353000    601.02277   -273913.35            0   -270855.15   -245.53014     98.17083    99.191107    99.471576    4.7327573    1681.3638    104649.94 
  354000    603.58627   -273877.75            0   -270806.51   -174.80005     98.17083    99.191107    99.471576    4.5623941    1687.9169    104637.56 
  355000    600.12947   -273903.64            0   -270849.99   -308.86536     98.17083    99.191107    99.471576    4.4849954     1694.873     104650.1 
  356000    600.33497   -273870.58            0   -270815.88    -44.54664     98.17083    99.191107    99.471576    4.7908491    1701.3435    104632.63 
  357000    597.02673   -273896.65            0   -270858.78   -272.51053     98.17083    99.191107    99.471576    4.4940476    1707.8176    104615.46 
  358000    605.98071   -273926.45            0   -270843.03   -522.32415     98.17083    99.191107    99.471576    4.5204408     1714.412    104605.71 
  359000    599.54773   -273905.63            0   -270854.93   -410.38448     98.17083    99.191107    99.471576    4.5550573    1721.2202    104608.98 
  360000    601.25557   -273901.98            0   -270842.59   -189.01588     98.17083    99.191107    99.471576    3.9199427     1727.912    104605.14 
  361000    600.37399   -273918.58            0   -270863.68   -251.61284     98.17083    99.191107    99.471576    4.3680016    1734.8226    104614.45 
  362000    603.52615   -273899.46            0   -270828.52   -430.36779     98.17083    99.191107    99.471576    4.4690176    1741.2014    104591.71 
  363000     601.3926   -273912.56            0   -270852.48   -218.82863     98.17083    99.191107    99.471576    4.9834969    1747.6308    104572.12 
  364000    597.09844    -273911.2            0   -270872.97   0.59414009     98.17083    99.191107    99.471576    4.3578118    1754.2125    104561.69 
  365000    600.37834   -273910.72            0    -270855.8   -159.48493     98.17083    99.191107    99.471576    5.0201465     1760.989    104562.88 
  366000    598.56612   -273911.73            0   -270866.03   -431.71525     98.17083    99.191107    99.471576    4.3577458    1767.6933    104559.72 
  367000    603.25192   -273909.34            0    -270839.8   -459.88074     98.17083    99.191107    99.471576    5.6557186    1774.5701    104566.71 
  368000    599.94276   -273923.84            0   -270871.13   -221.67823     98.17083    99.191107    99.471576    4.7641973    1780.9633    104545.21 
  369000     601.0256    -273905.9            0   -270847.69    16.272663     98.17083    99.191107    99.471576    4.8845754    1787.4181    104527.41 
  370000    600.89455   -273878.67            0   -270821.13   -94.403978     98.17083    99.191107    99.471576    4.8727211    1793.9603     104514.8 
  371000    597.93761   -273886.71            0   -270844.21   -349.23673     98.17083    99.191107    99.471576    4.6399198    1800.7728    104517.92 
  372000    603.72795   -273892.06            0   -270820.09   -93.628519     98.17083    99.191107    99.471576    4.5802436     1807.347    104507.18 
  373000    598.79928   -273910.73            0   -270863.84   -439.15122     98.17083    99.191107    99.471576    4.4590314    1814.3141    104519.11 
  374000    597.64089   -273894.05            0   -270853.06   -335.19315     98.17083    99.191107    99.471576    4.0227905    1820.7794    104502.11 
  375000    597.83611   -273910.53            0   -270868.54   -428.94179     98.17083    99.191107    99.471576    4.3029765    1827.2224     104483.9 
  376000    598.76044    -273906.1            0   -270859.41   -294.65338     98.17083    99.191107    99.471576    4.4496675    1833.8265    104474.96 
  377000    602.02686   -273897.81            0    -270834.5   -488.25574     98.17083    99.191107    99.471576    5.2447604    1840.6809    104480.24 
  378000    596.71608   -273912.37            0   -270876.08   -268.49238     98.17083    99.191107    99.471576    4.8935533      1847.24    104468.73 
  379000    606.08646   -273904.65            0   -270820.69   -248.41362     98.17083    99.191107    99.471576    4.4536999     1854.213    104480.59 
  380000    598.85101   -273901.99            0   -270854.84    -244.2869     98.17083    99.191107    99.471576    4.5566975     1860.681    104463.95 
  381000     600.1905   -273898.31            0   -270844.35   -465.17241     98.17083    99.191107    99.471576    5.0901691    1867.1201    104445.77 
  382000    597.50647   -273906.67            0   -270866.36    65.559232     98.17083    99.191107    99.471576    4.3077145    1873.6675    104433.71 
  383000    595.62925   -273898.65            0   -270867.89     -149.116     98.17083    99.191107    99.471576    4.2873041    1880.4556    104435.05 
  384000    601.24271   -273907.09            0   -270847.77   -295.33281     98.17083    99.191107    99.471576    4.6202659    1887.0419    104425.18 
  385000    599.44391   -273892.12            0   -270841.95   -31.376515     98.17083    99.191107    99.471576    4.7120486     1894.007    104436.21 
  386000    598.95477   -273905.53            0   -270857.85    90.971631     98.17083    99.191107    99.471576    5.2052522    1900.5258     104422.6 
  387000    604.31413   -273905.23            0   -270830.29    145.30397     98.17083    99.191107    99.471576    5.2194896    1907.0177    104407.56 
  388000    603.10672   -273918.66            0   -270849.85   -47.627182     98.17083    99.191107    99.471576    4.6409851    1913.6019    104397.62 
  389000    597.29397   -273903.65            0   -270864.42   -367.59342     98.17083    99.191107    99.471576    4.4259576    1920.4654    104402.88 
  390000    601.68099   -273923.58            0   -270862.03   -478.74807     98.17083    99.191107    99.471576    4.9479702    1927.0604    104393.52 
  391000    602.39896   -273923.78            0   -270858.58   -83.398309     98.17083    99.191107    99.471576    4.5988434    1934.0826    104407.23 
  392000     604.1792   -273887.94            0   -270813.68   -180.87662     98.17083    99.191107    99.471576    4.2824131    1940.6057    104393.95 
  393000     596.8078   -273905.76            0      -270869   -199.96124     98.17083    99.191107    99.471576    4.7517526     1947.059    104376.98 
  394000    600.78464   -273895.28            0   -270838.29   -356.53362     98.17083    99.191107    99.471576    4.4366652    1953.6224    104365.96 
  395000    601.21852   -273906.93            0   -270847.74     -402.512     98.17083    99.191107    99.471576    4.3066754    1960.4636    104369.77 
  396000    599.02843   -273886.26            0   -270838.21   -155.59844     98.17083    99.191107    99.471576    4.2311939    1967.1381    104364.65 
  397000    602.48906   -273909.43            0   -270843.76    -171.0337     98.17083    99.191107    99.471576    4.2805074    1974.0895    104374.17 
  398000     598.7714   -273914.78            0   -270868.03   -365.91457     98.17083    99.191107    99.471576    4.2007098    1980.5415    104357.26 
  399000    596.02649   -273893.16            0   -270860.38    106.12829     98.17083    99.191107    99.471576    4.4011188    1986.9287    104337.01 
  400000    597.44184   -273913.84            0   -270873.86   -100.50535     98.17083    99.191107    99.471576    4.4849868    1993.4332       104323 
  401000    604.92401   -273919.82            0   -270841.77   -293.15877     98.17083    99.191107    99.471576    4.5233013    2000.1952    104322.48 
  402000    600.34257   -273892.47            0   -270837.73   -235.99879     98.17083    99.191107    99.471576    4.5523393    2006.7464    104310.94 
  403000    601.00643   -273877.78            0   -270819.66   -129.27866     98.17083    99.191107    99.471576    4.2498665     2013.756     104323.2 
  404000    600.05277   -273907.11            0   -270853.85   -49.038531     98.17083    99.191107    99.471576    4.5691933    2020.2392    104308.14 
  405000    601.29968   -273913.74            0   -270854.13   -462.69916     98.17083    99.191107    99.471576    4.4312907    2026.6767    104290.79 
  406000    599.22912   -273884.87            0    -270835.8   -52.224146     98.17083    99.191107    99.471576    4.4256445    2033.1489    104275.29 
  407000    598.05192   -273906.77            0   -270863.69   -430.74167     98.17083    99.191107    99.471576    4.1272521    2040.0223    104280.36 
  408000    601.50813   -273911.14            0   -270850.47   -42.333423     98.17083    99.191107    99.471576    4.9213075    2046.6572     104273.2 
  409000    602.93896   -273916.61            0   -270848.66   -48.699523     98.17083    99.191107    99.471576    4.6190338    2053.6004    104281.69 
  410000    598.04127   -273895.53            0    -270852.5   -361.19489     98.17083    99.191107    99.471576    4.3563497    2060.2592     104275.7 
  411000    596.72787   -273925.57            0   -270889.22   -259.14777     98.17083    99.191107    99.471576    4.0836575    2066.7672    104262.09 
  412000    599.61112   -273924.99            0   -270873.98   -242.78244     98.17083    99.191107    99.471576    4.3290797    2073.3255    104251.06 
  413000    601.73438   -273902.37            0   -270840.55   -202.44061     98.17083    99.191107    99.471576    5.1795992    2080.0971    104250.74 
  414000    602.81666      -273897            0   -270829.67   -145.29221     98.17083    99.191107    99.471576    4.8795989     2086.724    104243.16 
  415000    596.34173   -273896.25            0   -270861.87   -233.13002     98.17083    99.191107    99.471576    4.8369312    2093.8018    104258.03 
  416000    601.46633   -273889.64            0   -270829.18   -216.61978     98.17083    99.191107    99.471576    4.3107336    2100.1865    104238.37 
  417000    602.03245    -273911.8            0   -270848.46   -18.849139     98.17083    99.191107    99.471576    4.1018503     2106.575    104218.98 
  418000     594.0469   -273909.71            0   -270887.01   -288.16006     98.17083    99.191107    99.471576    4.6133609    2113.1519    104208.96 
  419000    600.33445   -273945.14            0   -270890.45   -243.05886     98.17083    99.191107    99.471576    4.2390731    2119.9709    104210.86 
  420000    601.52727   -273895.73            0   -270834.96    -15.88713     98.17083    99.191107    99.471576    4.0454379    2126.6142     104204.1 
  421000    602.24467   -273905.29            0   -270840.87   -130.21978     98.17083    99.191107    99.471576    4.2608707     2133.674    104217.68 
  422000    601.91466    -273872.4            0   -270809.66   -245.99792     98.17083    99.191107    99.471576    4.2739488    2140.1002    104200.28 
  423000    600.40178   -273915.95            0   -270860.91    108.10914     98.17083    99.191107    99.471576    4.5973361    2146.5328    104183.27 
  424000    603.10462   -273886.23            0   -270817.44   -489.45331     98.17083    99.191107    99.471576    4.7159924    2153.0114    104168.54 
  425000    596.70173   -273889.34            0   -270853.12   -447.86946     98.17083    99.191107    99.471576    4.5674433    2159.7697    104167.35 
  426000    602.26415   -273892.53            0   -270828.01   -213.27705     98.17083    99.191107    99.471576    4.2785856     2166.436    104161.71 
  427000    598.88899   -273898.05            0   -270850.71   -43.740217     98.17083    99.191107    99.471576    4.2052183    2173.4197    104171.28 
  428000    598.71187   -273900.15            0   -270853.71   -341.82347     98.17083    99.191107    99.471576    4.6642917     2179.809    104152.34 
  429000    601.99755   -273931.02            0   -270867.86   -106.91506     98.17083    99.191107    99.471576    5.2160139    2186.2236    104134.68 
  430000    603.92007   -273904.28            0   -270831.34    -46.46388     98.17083    99.191107    99.471576    5.2428674    2192.7939    104124.49 
  431000    606.20553   -273897.55            0   -270812.98   -20.504545     98.17083    99.191107    99.471576    5.4090958     2199.601    104125.52 
  432000    596.13232   -273915.81            0   -270882.49   -244.14257     98.17083    99.191107    99.471576    4.2871647    2206.2547    104119.27 
  433000    596.31373   -273879.55            0   -270845.31   -94.037531     98.17083    99.191107    99.471576    4.1682712    2213.2435    104128.79 
  434000    600.59173   -273892.62            0   -270836.62   -193.65731     98.17083    99.191107    99.471576     4.645133    2219.7239    104114.36 
  435000    601.51843   -273920.95            0   -270860.23   -102.12937     98.17083    99.191107    99.471576    4.0194151    2226.1031    104095.24 
  436000    597.88137   -273932.72            0    -270890.5   -196.77635     98.17083    99.191107    99.471576    4.6089024    2232.5588    104079.77 
  437000    598.69938   -273929.22            0   -270882.84   -51.205704     98.17083    99.191107    99.471576    4.7746971    2239.3266    104078.85 
  438000    602.21051   -273931.01            0   -270866.76   -146.65374     98.17083    99.191107    99.471576    4.8037455    2246.0262    104074.74 
  439000    602.85422   -273923.63            0   -270856.12   -187.52979     98.17083    99.191107    99.471576    5.5391265    2253.0751    104086.75 
  440000    604.75722   -273904.34            0   -270827.14   -238.06828     98.17083    99.191107    99.471576     4.237338    2259.6391    104076.32 
  441000    597.73863   -273924.82            0   -270883.33   -157.82897     98.17083    99.191107    99.471576    4.8571859     2266.052    104058.97 
  442000    599.79771   -273915.52            0   -270863.56    -253.0802     98.17083    99.191107    99.471576    4.2631066    2272.5925    104047.52 
  443000    595.63264   -273907.99            0   -270877.22   -178.00719     98.17083    99.191107    99.471576    4.1640456    2279.4348    104049.89 
  444000    599.56607   -273917.11            0   -270866.33   -247.88476     98.17083    99.191107    99.471576     5.079555    2286.0903    104043.69 
  445000    602.36607   -273895.62            0   -270830.58   -50.761658     98.17083    99.191107    99.471576     4.717184    2293.0106    104049.51 
  446000    600.61511   -273901.79            0   -270845.66    23.367403     98.17083    99.191107    99.471576    4.2708648    2299.7283    104046.09 
  447000    602.01734   -273923.18            0   -270859.92   -92.195567     98.17083    99.191107    99.471576    4.9007847    2306.1742    104030.39 
  448000    596.72741   -273927.65            0   -270891.31   -334.09543     98.17083    99.191107    99.471576    4.6825769    2312.7312    104019.74 
  449000    596.91208   -273919.36            0   -270882.08   -530.41907     98.17083    99.191107    99.471576     4.249652    2319.5035    104018.76 
  450000    601.18723   -273906.32            0   -270847.28   -51.624681     98.17083    99.191107    99.471576    5.5641041     2326.082     104009.1 
  451000    601.45445   -273949.55            0   -270889.15   -516.03884     98.17083    99.191107    99.471576    3.9910037    2333.0332    104016.06 
  452000    600.21488   -273925.87            0   -270871.79   -156.33925     98.17083    99.191107    99.471576    4.6976412    2339.6952    104010.09 
  453000    599.36201   -273909.93            0   -270860.18   -243.96436     98.17083    99.191107    99.471576    4.7506668    2346.0917    103992.34 
  454000    599.08273   -273923.77            0   -270875.44   -231.00054     98.17083    99.191107    99.471576    4.1322195    2352.6981    103983.94 
  455000    598.37307   -273923.15            0   -270878.43   -461.49449     98.17083    99.191107    99.471576    4.6901621    2359.5138    103984.77 
  456000    597.78917   -273916.01            0   -270874.26   -512.15228     98.17083    99.191107    99.471576    5.0689866    2366.1875    103979.32 
  457000    602.50142   -273914.68            0   -270848.95   -489.37067     98.17083    99.191107    99.471576    4.9191158    2373.2006    103988.73 
  458000    601.04813    -273920.2            0   -270861.87   -305.23034     98.17083    99.191107    99.471576    4.7727765    2379.8072    103980.29 
  459000    596.47065   -273908.19            0   -270873.16   -220.23398     98.17083    99.191107    99.471576     5.231903    2386.2407    103964.32 
  460000    600.78304   -273936.98            0      -270880    -403.4315     98.17083    99.191107    99.471576    4.4071279    2392.7974    103953.76 
  461000    600.69992   -273913.72            0   -270857.17   -511.91205     98.17083    99.191107    99.471576    4.6137804    2399.6281    103955.08 
  462000    602.77416   -273905.72            0   -270838.61   -456.91785     98.17083    99.191107    99.471576    4.4701176     2406.195    103944.97 
  463000    599.67095   -273935.06            0   -270883.74   -135.30846     98.17083    99.191107    99.471576    4.2171999    2413.1114    103949.92 
  464000    604.26375   -273899.82            0   -270825.13   -402.71819     98.17083    99.191107    99.471576     4.523645     2419.665    103939.23 
  465000    603.97481   -273913.55            0   -270840.33   -407.56584     98.17083    99.191107    99.471576     3.894436    2426.1357    103925.02 
  466000    594.69646   -273919.81            0    -270893.8   -405.22536     98.17083    99.191107    99.471576    4.5643041    2432.6375    103912.17 
  467000    594.36836   -273909.74            0    -270885.4   -762.23865     98.17083    99.191107    99.471576    4.7718388     2439.402    103910.55 
  468000    599.91608   -273920.47            0    -270867.9   -222.72012     98.17083    99.191107    99.471576    4.1928276    2446.0101    103902.25 
  469000    599.99943   -273933.39            0   -270880.39   -351.07279     98.17083    99.191107    99.471576    4.6926306    2452.9048    103906.11 
  470000    602.13155   -273869.76            0   -270805.92   -339.07789     98.17083    99.191107    99.471576    4.7622615    2459.5414       103899 
  471000     602.0671   -273936.55            0   -270873.04   -467.90417     98.17083    99.191107    99.471576    3.9209778    2465.9832     103883.7 
  472000    604.99079   -273895.39            0      -270817   -313.96052     98.17083    99.191107    99.471576    4.7417081     2472.507    103871.88 
[...]
15980000    592.99632   -273972.31            0   -270954.95   -109.61115     98.17083    99.191107    99.471576    4.6007073    106039.51    801.30612 
15981000     596.5596   -273956.13            0   -270920.64    21.623171     98.17083    99.191107    99.471576     4.464897    106046.18    794.62854 
15982000    601.05992   -273947.07            0   -270888.68    11.518633     98.17083    99.191107    99.471576    5.1373304    106052.79     787.9505 
15983000    603.84725   -273958.12            0   -270885.55    63.428719     98.17083    99.191107    99.471576    4.3984329    106059.77    781.27517 
15984000    600.74202   -273973.43            0   -270916.66   -35.508202     98.17083    99.191107    99.471576     4.806227    106066.25    774.59615 
15985000    604.24845   -273978.86            0   -270904.25    39.471428     98.17083    99.191107    99.471576    4.7340918    106072.65    767.91658 
15986000    601.36253   -273990.45            0   -270930.52    163.27787     98.17083    99.191107    99.471576    4.3937227    106079.28    761.23873 
15987000    603.21837   -273972.66            0   -270903.28    299.21115     98.17083    99.191107    99.471576    4.5365994    106085.94    754.56107 
15988000    601.50097   -273980.52            0   -270919.89   -57.227845     98.17083    99.191107    99.471576    4.9111778    106092.69    747.88401 
15989000    598.10556   -273978.73            0   -270935.38   -82.856105     98.17083    99.191107    99.471576    4.3664948    106099.65    741.20844 
15990000    597.05538   -273984.13            0   -270946.12   -51.681805     98.17083    99.191107    99.471576    4.7008514    106106.17     734.5298 
15991000    606.10785   -273970.07            0      -270886    190.51909     98.17083    99.191107    99.471576     4.453448    106112.63    727.85079 
15992000    605.52724   -273943.28            0   -270862.16    142.02434     98.17083    99.191107    99.471576    4.4553807    106119.26    721.17293 
15993000     596.5762   -273968.61            0   -270933.04    110.04673     98.17083    99.191107    99.471576    4.6997709    106125.94    714.49544 
15994000    601.12752   -273939.01            0   -270880.27    181.61074     98.17083    99.191107    99.471576    4.0499339    106132.54    707.81736 
15995000    602.33961   -273980.31            0   -270915.41   -14.043528     98.17083    99.191107    99.471576     4.168642    106139.54    701.14199 
15996000    593.21394   -273989.81            0   -270971.34    27.635023     98.17083    99.191107    99.471576    4.6253691    106145.99    694.46293 
15997000    600.79963   -273971.22            0   -270914.16    354.44814     98.17083    99.191107    99.471576    4.3637437    106152.47    687.78413 
15998000    601.43339   -273985.28            0   -270924.99   -65.309902     98.17083    99.191107    99.471576    4.5339796    106159.08    681.10616 
15999000    602.03913      -273975            0   -270911.62    44.070163     98.17083    99.191107    99.471576    4.5649144    106165.76    674.42868 
16000000     602.8618   -273958.55            0   -270890.99   -280.78844     98.17083    99.191107    99.471576    4.6210056    106172.45    667.75124 
16001000    602.55694   -273981.74            0   -270915.73    5.9517391     98.17083    99.191107    99.471576    4.7779168    106179.41    661.07553 
16002000     605.8751   -273992.87            0   -270909.98    39.358078     98.17083    99.191107    99.471576    4.8079956    106185.93    654.39699 
16003000    599.93963   -273982.55            0   -270929.86      191.724     98.17083    99.191107    99.471576    3.8046945    106192.35     647.7179 
16004000    601.91675   -274017.14            0    -270954.4    280.90164     98.17083    99.191107    99.471576    5.0173686    106198.93    641.03982 
16005000    602.99664   -273991.27            0   -270923.03    21.024678     98.17083    99.191107    99.471576    4.2434749    106205.56    634.36201 
16006000    604.15516   -273972.07            0   -270897.93    228.08833     98.17083    99.191107    99.471576    4.5217322    106212.23    627.68452 
16007000     597.8873   -273999.97            0   -270957.73   -63.203595     98.17083    99.191107    99.471576    5.0851313    106219.22    621.00882 
16008000    599.43604   -273971.77            0   -270921.65    -168.9214     98.17083    99.191107    99.471576    4.3364318    106225.66    614.32996 
16009000    604.64576   -273983.18            0   -270906.54    2.1518852     98.17083    99.191107    99.471576    4.9237736    106232.14    607.65133 
16010000    597.43995   -273978.18            0   -270938.21     69.93014     98.17083    99.191107    99.471576    7.0850155    106238.69    600.97313 
16011000    598.21821   -273999.14            0   -270955.22   -31.813794     98.17083    99.191107    99.471576    4.2987059     106245.3    594.29528 
16012000    599.85314   -273990.83            0   -270938.59    -28.39692     98.17083    99.191107    99.471576    5.0069633    106251.98    587.61778 
16013000    596.82267   -273975.06            0   -270938.23   -164.02531     98.17083    99.191107    99.471576    4.5376626    106258.95     580.9419 
16014000    603.64425   -273996.55            0   -270925.01   -7.0382497     98.17083    99.191107    99.471576    4.6777661    106265.44    574.26338 
16015000    599.40462   -273997.92            0   -270947.95   -17.962567     98.17083    99.191107    99.471576    4.7604584    106271.85    567.58451 
16016000    600.26215   -273965.15            0   -270910.82     236.6275     98.17083    99.191107    99.471576    4.4274966    106278.43    560.90649 
16017000    598.78033   -273948.67            0   -270901.88    20.879729     98.17083    99.191107    99.471576     4.369392    106284.96    554.22831 
16018000    599.96697   -273994.86            0   -270942.03    131.89415     98.17083    99.191107    99.471576      4.43799    106291.68    547.55107 
16019000    601.28932   -273987.34            0   -270927.78    194.84035     98.17083    99.191107    99.471576    5.2359735    106298.64    540.87506 
16020000    596.98369   -273973.27            0   -270935.62    71.505108     98.17083    99.191107    99.471576    4.7125962    106305.17    534.19684 
16021000     598.1915   -273971.58            0   -270927.79   -21.442641     98.17083    99.191107    99.471576    4.3603178     106311.7    527.51865 
16022000    598.49725   -273979.94            0   -270934.59   -51.683739     98.17083    99.191107    99.471576    4.5727376    106318.32    520.84093 
16023000    599.84701   -273959.08            0   -270906.86     46.00646     98.17083    99.191107    99.471576    4.4432918    106324.96    514.16327 
16024000    600.82496   -273977.11            0   -270919.92    18.882443     98.17083    99.191107    99.471576    3.8928393    106331.72    507.48622 
16025000    597.41481   -273959.47            0   -270919.63    67.992198     98.17083    99.191107    99.471576    5.1097656     106338.7    500.81023 
16026000    601.55408   -273945.32            0   -270884.41    75.420411     98.17083    99.191107    99.471576    5.3306292    106345.27    494.13222 
16027000    597.12018    -273937.6            0   -270899.26   -114.70666     98.17083    99.191107    99.471576    4.4847695    106351.64    487.45337 
16028000    595.23216    -273977.1            0   -270948.37   -23.075546     98.17083    99.191107    99.471576    4.1328569    106358.17    480.77527 
16029000    597.42293   -273954.25            0   -270914.36     169.9056     98.17083    99.191107    99.471576    4.8948157    106364.69     474.0971 
16030000     603.5241   -273964.25            0   -270893.32   -261.85095     98.17083    99.191107    99.471576    3.9336297    106371.44       467.42 
16031000    595.48499   -273977.57            0   -270947.55   -196.84038     98.17083    99.191107    99.471576    4.4402155    106378.36    460.74364 
16032000    602.23625   -273969.48            0   -270905.11   -103.38199     98.17083    99.191107    99.471576    4.5967272    106384.99    454.06598 
16033000    598.45973   -273977.13            0   -270931.97   -6.0306908     98.17083    99.191107    99.471576    4.0827135     106391.5    447.38785 
16034000    599.29099   -273979.21            0   -270929.83   -110.43474     98.17083    99.191107    99.471576     4.473334    106398.12    440.71017 
16035000    599.86478   -273947.65            0   -270895.34    32.114715     98.17083    99.191107    99.471576    5.6510455    106404.78    434.03269 
16036000    596.26308   -273953.18            0    -270919.2   -164.91385     98.17083    99.191107    99.471576    4.0252378    106411.49    427.35539 
16037000    599.18577   -273946.94            0   -270898.08    186.89309     98.17083    99.191107    99.471576    4.6516262    106418.41     420.6789 
16038000    598.18739   -273973.48            0   -270929.71   -219.27171     98.17083    99.191107    99.471576    4.6415934    106425.05    414.00134 
16039000    598.20635   -273980.62            0   -270936.75   -204.52893     98.17083    99.191107    99.471576    4.2338642    106431.54    407.32316 
16040000    602.26735   -273970.31            0   -270905.77   -84.025664     98.17083    99.191107    99.471576    4.5448947    106438.07     400.6452 
16041000    599.75759   -273946.77            0   -270895.01   -109.12128     98.17083    99.191107    99.471576    4.4937634    106444.65     393.9674 
16042000    597.65603   -273958.24            0   -270917.17   -245.14435     98.17083    99.191107    99.471576    4.6604379    106451.36    387.29012 
16043000    601.47618   -273958.21            0   -270897.71    220.77309     98.17083    99.191107    99.471576      4.28721    106458.46     380.6142 
16044000    600.11086   -273981.73            0   -270928.17    345.86561     98.17083    99.191107    99.471576    4.6235977    106465.11    373.93667 
16045000    601.02391   -273961.87            0   -270903.67   -47.560818     98.17083    99.191107    99.471576    4.6288146    106471.62    367.25865 
16046000    599.70513   -273970.78            0   -270919.28   -171.94559     98.17083    99.191107    99.471576    4.7670821    106478.19    360.58084 
16047000    601.59149   -273973.77            0   -270912.68   -11.909511     98.17083    99.191107    99.471576    4.0072356    106484.78    353.90315 
16048000    598.68725   -273984.99            0   -270938.67   -75.409716     98.17083    99.191107    99.471576    4.3785472    106491.52    347.22592 
16049000    599.48496   -273951.41            0   -270901.04    459.90725     98.17083    99.191107    99.471576    4.3557738    106498.44    340.54928 
16050000    600.48782   -273989.88            0    -270934.4     6.787934     98.17083    99.191107    99.471576     4.624833    106504.95    333.87132 
16051000    603.10495   -273972.24            0   -270903.45     186.3337     98.17083    99.191107    99.471576     4.985295    106511.41    327.19321 
16052000    597.77525   -273961.13            0   -270919.46   -2.9314127     98.17083    99.191107    99.471576    5.0721398    106518.04    320.51568 
16053000    603.31153   -273954.54            0    -270884.7   -201.28826     98.17083    99.191107    99.471576    4.0875711    106524.64    313.83804 
16054000     599.6922   -273988.49            0   -270937.06    224.02317     98.17083    99.191107    99.471576    4.3267305    106531.37    307.16078 
16055000    601.57493   -273994.34            0   -270933.33   -71.560027     98.17083    99.191107    99.471576    4.2406633    106538.28    300.48403 
16056000    600.77451   -273956.07            0   -270899.13    330.11696     98.17083    99.191107    99.471576     4.676562    106544.86    293.80634 
16057000    600.90637   -273984.17            0   -270926.57    31.858322     98.17083    99.191107    99.471576     4.163711    106551.39    287.12852 
16058000    602.11238   -273963.04            0   -270899.29     80.52891     98.17083    99.191107    99.471576    4.3531088    106558.01    280.45095 
16059000    596.93565   -273989.79            0   -270952.39   -124.43842     98.17083    99.191107    99.471576    4.0779729    106564.48    273.77302 
16060000    597.24887   -273962.91            0   -270923.92    -86.06694     98.17083    99.191107    99.471576    4.6321751     106571.2    267.09575 
16061000    601.82257   -273969.17            0    -270906.9     260.2804     98.17083    99.191107    99.471576    4.0966245    106578.15      260.419 
16062000    597.77764   -273998.47            0   -270956.78    134.86996     98.17083    99.191107    99.471576    4.4074104    106584.78    253.74149 
16063000    600.85629   -273977.07            0   -270919.72    360.79553     98.17083    99.191107    99.471576    4.5505393    106591.25    247.06359 
16064000    603.25283   -273982.33            0   -270912.78   -452.65009     98.17083    99.191107    99.471576    4.2946363    106597.85    240.38603 
16065000    603.76081   -273978.42            0   -270906.29   -102.69054     98.17083    99.191107    99.471576    5.3744539    106604.45    233.70846 
16066000    594.75038   -273978.79            0    -270952.5   -131.25958     98.17083    99.191107    99.471576     4.633716    106611.25    227.03135 
16067000    603.04575   -273967.25            0   -270898.76    165.62524     98.17083    99.191107    99.471576    5.3543446    106618.16    220.35443 
16068000    597.44395   -273965.96            0   -270925.97   -11.103297     98.17083    99.191107    99.471576    4.6438806    106624.76    213.67687 
16069000    597.36142   -273987.19            0   -270947.62   -177.50674     98.17083    99.191107    99.471576     4.441761    106631.18    206.99898 
16070000    598.68341   -273946.42            0   -270900.12   -135.81126     98.17083    99.191107    99.471576    4.4852037    106637.76    200.32139 
16071000    602.11601   -273970.91            0   -270907.15   -270.59266     98.17083    99.191107    99.471576    4.3333948    106644.29    193.64375 
16072000    601.87813   -273964.41            0   -270901.86    25.766777     98.17083    99.191107    99.471576     4.904026    106651.03    186.96649 
16073000    596.12134   -273967.49            0   -270934.23   -6.8026215     98.17083    99.191107    99.471576    4.5574988    106657.93     180.2895 
16074000    602.28253   -273969.55            0   -270904.94      139.965     98.17083    99.191107    99.471576    4.5378275    106664.52    173.61196 
16075000     593.5888    -273948.3            0   -270927.93    135.51186     98.17083    99.191107    99.471576    4.4971693    106670.94    166.93418 
16076000    598.10412   -273963.77            0   -270920.42    123.76986     98.17083    99.191107    99.471576    4.8604199    106677.52    160.25666 
16077000    596.51657   -273945.13            0   -270909.86   -28.222758     98.17083    99.191107    99.471576     4.321005     106684.1    153.57916 
16078000    602.31007   -273963.65            0    -270898.9   -24.254038     98.17083    99.191107    99.471576    4.3453151    106690.82    146.90187 
16079000    598.64907   -273957.14            0   -270911.02    217.69502     98.17083    99.191107    99.471576    4.6617123    106697.73    140.22481 
16080000    598.42578   -273977.93            0   -270932.95   -83.941895     98.17083    99.191107    99.471576    4.5753922    106704.43    133.54747 
16081000    599.10546   -273966.51            0   -270918.07    90.187824     98.17083    99.191107    99.471576    4.3710269    106710.85    126.86979 
16082000    599.79749   -273981.54            0   -270929.57    296.99331     98.17083    99.191107    99.471576    4.4900336    106717.41     120.1923 
16083000    598.28015   -273980.79            0   -270936.54   -9.5546094     98.17083    99.191107    99.471576    4.9366085    106724.01    113.51487 
16084000    602.78629   -273985.08            0    -270917.9   -170.05013     98.17083    99.191107    99.471576    4.5994154    106730.78    106.83762 
16085000    601.00699   -273957.42            0    -270899.3   -241.46487     98.17083    99.191107    99.471576    4.2266314    106737.66    100.16046 
16086000    600.10436   -273970.43            0    -270916.9   -85.465199     98.17083    99.191107    99.471576    4.8125858    106744.31    93.483071 
16087000    593.34909    -273968.2            0   -270949.04   -21.816778     98.17083    99.191107    99.471576    4.2746988    106750.76    86.805518 
16088000    600.89427    -273947.4            0   -270889.85   -26.128727     98.17083    99.191107    99.471576    4.0662945    106757.32    80.128083 
16089000    603.40324   -273934.08            0   -270863.77   -191.71581     98.17083    99.191107    99.471576    4.4162537    106763.83    73.450634 
16090000    602.24264   -273956.18            0   -270891.77    110.53877     98.17083    99.191107    99.471576    4.0325769    106770.57    66.773337 
16091000    600.24217   -273981.96            0   -270927.73   -36.789695     98.17083    99.191107    99.471576    4.5642171    106777.53    60.096162 
16092000    601.92439   -273972.28            0    -270909.5    52.591237     98.17083    99.191107    99.471576    4.3095923    106784.16    53.418789 
16093000    599.72218   -273936.33            0   -270884.75    80.504329     98.17083    99.191107    99.471576    4.8450925    106790.58    46.741328 
16094000     594.4081   -273928.31            0   -270903.76    57.126661     98.17083    99.191107    99.471576    4.4484532    106797.14    40.063952 
16095000    597.34204   -273956.16            0   -270916.69    66.762488     98.17083    99.191107    99.471576    4.6686886     106803.8    33.386622 
16096000    598.77555   -273946.69            0   -270899.93     199.7651     98.17083    99.191107    99.471576    4.0966172     106810.6    26.709326 
16097000    594.00883    -273968.4            0   -270945.89    -161.4779     98.17083    99.191107    99.471576    4.2961289    106817.59    20.032054 
16098000    600.89816   -273966.18            0   -270908.61    60.846446     98.17083    99.191107    99.471576    3.8529704    106824.19    13.354693 
16099000    600.20381   -273968.49            0   -270914.46    113.64293     98.17083    99.191107    99.471576    4.5145404    106830.62    6.6773313 
16100000    604.01422    -273993.8            0   -270920.38  -0.15142113     98.17083    99.191107    99.471576     4.637798    106837.17            0 
Loop time of 106837 on 160 procs for 16000000 steps with 39366 atoms

Performance: 12.939 ns/day, 1.855 hours/ns, 149.761 timesteps/s
98.9% CPU use with 160 MPI tasks x 1 OpenMP threads

MPI task timing breakdown:
Section |  min time  |  avg time  |  max time  |%varavg| %total
---------------------------------------------------------------
Pair    | 22091      | 23981      | 26706      | 703.7 | 22.45
Kspace  | 66514      | 69980      | 72616      | 507.1 | 65.50
Neigh   | 688.55     | 724.81     | 801.02     | 107.1 |  0.68
Comm    | 8416.6     | 9668.7     | 11527      | 626.6 |  9.05
Output  | 611.24     | 611.29     | 611.3      |   0.0 |  0.57
Modify  | 1478.9     | 1618.4     | 1782.4     | 188.9 |  1.51
Other   |            | 252.4      |            |       |  0.24

Nlocal:    246.037 ave 266 max 227 min
Histogram: 4 3 13 22 42 34 30 9 2 1
Nghost:    3886.04 ave 3946 max 3826 min
Histogram: 2 10 13 27 26 25 33 14 5 5
Neighs:    57360.9 ave 63778 max 52300 min
Histogram: 13 9 21 25 31 23 16 14 5 3

Total # of neighbors = 9177739
Ave neighs/atom = 233.139
Neighbor list builds = 582259
Dangerous builds = 0

# Final Commands
variable        final_energy equal etotal
print           "final_energy: ${'final_energy'}"
ERROR on proc 0: Substitution for illegal variable 'final_energy' (../input.cpp:553)
Last command: final_energy: ${'final_energy'
