 # Li8704 Sc2560 Cl16384
 
       27648  atoms
           3  atom types
 
      0.000000000000      82.242361760000  xlo xhi
      0.000000000000      82.506461456354  ylo yhi
      0.000000000000      82.296819148284  zlo zhi
     -0.084649067454      -0.260726210441      -0.235924761839  xy xz yz
 
Masses
 
            1   6.94000000              # Li
            2   44.95591200             # Sc
            3   35.45000000             # Cl
 
Atoms # charge
 
         1    1   1.000000        3.797088530993       3.813445184144       9.084604315250
         2    1   1.000000        3.764497754688       3.783954588914      19.371706708786
         3    1   1.000000        3.731906978383       3.754463993684      29.658809102321
         4    1   1.000000        3.699316202078       3.724973398454      39.945911495856
         5    1   1.000000        3.666725425772       3.695482803224      50.233013889392
         6    1   1.000000        3.634134649467       3.665992207994      60.520116282927
         7    1   1.000000        3.601543873162       3.636501612765      70.807218676463
         8    1   1.000000        3.568953096857       3.607011017535      81.094321069998
         9    1   1.000000        3.786507397561      14.126752866188       9.084604315250
        10    1   1.000000        3.753916621256      14.097262270958      19.371706708786
        11    1   1.000000        3.721325844951      14.067771675729      29.658809102321
        12    1   1.000000        3.688735068646      14.038281080499      39.945911495856
        13    1   1.000000        3.656144292341      14.008790485269      50.233013889392
        14    1   1.000000        3.623553516035      13.979299890039      60.520116282927
        15    1   1.000000        3.590962739730      13.949809294809      70.807218676463
        16    1   1.000000        3.558371963425      13.920318699579      81.094321069998
        17    1   1.000000        3.775926264129      24.440060548233       9.084604315250
        18    1   1.000000        3.743335487824      24.410569953003      19.371706708786
        19    1   1.000000        3.710744711519      24.381079357773      29.658809102321
        20    1   1.000000        3.678153935214      24.351588762543      39.945911495856
        21    1   1.000000        3.645563158909      24.322098167313      50.233013889392
        22    1   1.000000        3.612972382604      24.292607572083      60.520116282927
        23    1   1.000000        3.580381606299      24.263116976853      70.807218676463
        24    1   1.000000        3.547790829993      24.233626381623      81.094321069998
        25    1   1.000000        3.765345130698      34.753368230277       9.084604315250
        26    1   1.000000        3.732754354393      34.723877635047      19.371706708786
        27    1   1.000000        3.700163578087      34.694387039817      29.658809102321
        28    1   1.000000        3.667572801782      34.664896444587      39.945911495856
        29    1   1.000000        3.634982025477      34.635405849357      50.233013889392
        30    1   1.000000        3.602391249172      34.605915254127      60.520116282927
        31    1   1.000000        3.569800472867      34.576424658897      70.807218676463
        32    1   1.000000        3.537209696562      34.546934063667      81.094321069998
        33    1   1.000000        3.754763997266      45.066675912321       9.084604315250
        34    1   1.000000        3.722173220961      45.037185317091      19.371706708786
        35    1   1.000000        3.689582444656      45.007694721861      29.658809102321
        36    1   1.000000        3.656991668350      44.978204126631      39.945911495856
        37    1   1.000000        3.624400892045      44.948713531401      50.233013889392
        38    1   1.000000        3.591810115740      44.919222936172      60.520116282927
        39    1   1.000000        3.559219339435      44.889732340942      70.807218676463
        40    1   1.000000        3.526628563130      44.860241745712      81.094321069998
        41    1   1.000000        3.744182863834      55.379983594365       9.084604315250
        42    1   1.000000        3.711592087529      55.350492999135      19.371706708786
        43    1   1.000000        3.679001311224      55.321002403906      29.658809102321
        44    1   1.000000        3.646410534919      55.291511808676      39.945911495856
        45    1   1.000000        3.613819758613      55.262021213446      50.233013889392
        46    1   1.000000        3.581228982308      55.232530618216      60.520116282927
        47    1   1.000000        3.548638206003      55.203040022986      70.807218676463
        48    1   1.000000        3.516047429698      55.173549427756      81.094321069998
        49    1   1.000000        3.733601730402      65.693291276410       9.084604315250
        50    1   1.000000        3.701010954097      65.663800681180      19.371706708786
        51    1   1.000000        3.668420177792      65.634310085950      29.658809102321
        52    1   1.000000        3.635829401487      65.604819490720      39.945911495856
        53    1   1.000000        3.603238625182      65.575328895490      50.233013889392
        54    1   1.000000        3.570647848877      65.545838300260      60.520116282927
        55    1   1.000000        3.538057072571      65.516347705030      70.807218676463
        56    1   1.000000        3.505466296266      65.486857109800      81.094321069998
        57    1   1.000000        3.723020596971      76.006598958454       9.084604315250
        58    1   1.000000        3.690429820665      75.977108363224      19.371706708786
        59    1   1.000000        3.657839044360      75.947617767994      29.658809102321
        60    1   1.000000        3.625248268055      75.918127172764      39.945911495856
        61    1   1.000000        3.592657491750      75.888636577534      50.233013889392
        62    1   1.000000        3.560066715445      75.859145982304      60.520116282927
        63    1   1.000000        3.527475939140      75.829655387074      70.807218676463
        64    1   1.000000        3.494885162834      75.800164791844      81.094321069998
        65    1   1.000000       14.077383750993       3.813445184144       9.084604315250
        66    1   1.000000       14.044792974688       3.783954588914      19.371706708786
        67    1   1.000000       14.012202198383       3.754463993684      29.658809102321
        68    1   1.000000       13.979611422078       3.724973398454      39.945911495856
        69    1   1.000000       13.947020645772       3.695482803224      50.233013889392
        70    1   1.000000       13.914429869467       3.665992207994      60.520116282927
        71    1   1.000000       13.881839093162       3.636501612765      70.807218676463
        72    1   1.000000       13.849248316857       3.607011017535      81.094321069998
        73    1   1.000000       14.066802617561      14.126752866188       9.084604315250
        74    1   1.000000       14.034211841256      14.097262270958      19.371706708786
        75    1   1.000000       14.001621064951      14.067771675729      29.658809102321
        76    1   1.000000       13.969030288646      14.038281080499      39.945911495856
        77    1   1.000000       13.936439512341      14.008790485269      50.233013889392
        78    1   1.000000       13.903848736035      13.979299890039      60.520116282927
        79    1   1.000000       13.871257959730      13.949809294809      70.807218676463
        80    1   1.000000       13.838667183425      13.920318699579      81.094321069998
        81    1   1.000000       14.056221484129      24.440060548233       9.084604315250
        82    1   1.000000       14.023630707824      24.410569953003      19.371706708786
        83    1   1.000000       13.991039931519      24.381079357773      29.658809102321
        84    1   1.000000       13.958449155214      24.351588762543      39.945911495856
        85    1   1.000000       13.925858378909      24.322098167313      50.233013889392
        86    1   1.000000       13.893267602604      24.292607572083      60.520116282927
        87    1   1.000000       13.860676826299      24.263116976853      70.807218676463
        88    1   1.000000       13.828086049993      24.233626381623      81.094321069998
        89    1   1.000000       14.045640350698      34.753368230277       9.084604315250
        90    1   1.000000       14.013049574393      34.723877635047      19.371706708786
        91    1   1.000000       13.980458798087      34.694387039817      29.658809102321
        92    1   1.000000       13.947868021782      34.664896444587      39.945911495856
        93    1   1.000000       13.915277245477      34.635405849357      50.233013889392
        94    1   1.000000       13.882686469172      34.605915254127      60.520116282927
        95    1   1.000000       13.850095692867      34.576424658897      70.807218676463
        96    1   1.000000       13.817504916562      34.546934063667      81.094321069998
        97    1   1.000000       14.035059217266      45.066675912321       9.084604315250
        98    1   1.000000       14.002468440961      45.037185317091      19.371706708786
        99    1   1.000000       13.969877664656      45.007694721861      29.658809102321
       100    1   1.000000       13.937286888350      44.978204126631      39.945911495856
       101    1   1.000000       13.904696112045      44.948713531401      50.233013889392
       102    1   1.000000       13.872105335740      44.919222936172      60.520116282927
       103    1   1.000000       13.839514559435      44.889732340942      70.807218676463
       104    1   1.000000       13.806923783130      44.860241745712      81.094321069998
       105    1   1.000000       14.024478083834      55.379983594365       9.084604315250
       106    1   1.000000       13.991887307529      55.350492999135      19.371706708786
       107    1   1.000000       13.959296531224      55.321002403906      29.658809102321
       108    1   1.000000       13.926705754919      55.291511808676      39.945911495856
       109    1   1.000000       13.894114978613      55.262021213446      50.233013889392
       110    1   1.000000       13.861524202308      55.232530618216      60.520116282927
       111    1   1.000000       13.828933426003      55.203040022986      70.807218676463
       112    1   1.000000       13.796342649698      55.173549427756      81.094321069998
       113    1   1.000000       14.013896950402      65.693291276410       9.084604315250
       114    1   1.000000       13.981306174097      65.663800681180      19.371706708786
       115    1   1.000000       13.948715397792      65.634310085950      29.658809102321
       116    1   1.000000       13.916124621487      65.604819490720      39.945911495856
       117    1   1.000000       13.883533845182      65.575328895490      50.233013889392
       118    1   1.000000       13.850943068877      65.545838300260      60.520116282927
       119    1   1.000000       13.818352292571      65.516347705030      70.807218676463
       120    1   1.000000       13.785761516266      65.486857109800      81.094321069998
       121    1   1.000000       14.003315816971      76.006598958454       9.084604315250
       122    1   1.000000       13.970725040665      75.977108363224      19.371706708786
       123    1   1.000000       13.938134264360      75.947617767994      29.658809102321
       124    1   1.000000       13.905543488055      75.918127172764      39.945911495856
       125    1   1.000000       13.872952711750      75.888636577534      50.233013889392
       126    1   1.000000       13.840361935445      75.859145982304      60.520116282927
       127    1   1.000000       13.807771159140      75.829655387074      70.807218676463
       128    1   1.000000       13.775180382834      75.800164791844      81.094321069998
       129    1   1.000000       24.357678970993       3.813445184144       9.084604315250
       130    1   1.000000       24.325088194688       3.783954588914      19.371706708786
       131    1   1.000000       24.292497418383       3.754463993684      29.658809102321
       132    1   1.000000       24.259906642078       3.724973398454      39.945911495856
       133    1   1.000000       24.227315865772       3.695482803224      50.233013889392
       134    1   1.000000       24.194725089467       3.665992207994      60.520116282927
       135    1   1.000000       24.162134313162       3.636501612765      70.807218676463
       136    1   1.000000       24.129543536857       3.607011017535      81.094321069998
       137    1   1.000000       24.347097837561      14.126752866188       9.084604315250
       138    1   1.000000       24.314507061256      14.097262270958      19.371706708786
       139    1   1.000000       24.281916284951      14.067771675729      29.658809102321
       140    1   1.000000       24.249325508646      14.038281080499      39.945911495856
       141    1   1.000000       24.216734732341      14.008790485269      50.233013889392
       142    1   1.000000       24.184143956035      13.979299890039      60.520116282927
       143    1   1.000000       24.151553179730      13.949809294809      70.807218676463
       144    1   1.000000       24.118962403425      13.920318699579      81.094321069998
       145    1   1.000000       24.336516704129      24.440060548233       9.084604315250
       146    1   1.000000       24.303925927824      24.410569953003      19.371706708786
       147    1   1.000000       24.271335151519      24.381079357773      29.658809102321
       148    1   1.000000       24.238744375214      24.351588762543      39.945911495856
       149    1   1.000000       24.206153598909      24.322098167313      50.233013889392
       150    1   1.000000       24.173562822604      24.292607572083      60.520116282927
       151    1   1.000000       24.140972046299      24.263116976853      70.807218676463
       152    1   1.000000       24.108381269993      24.233626381623      81.094321069998
       153    1   1.000000       24.325935570698      34.753368230277       9.084604315250
       154    1   1.000000       24.293344794393      34.723877635047      19.371706708786
       155    1   1.000000       24.260754018087      34.694387039817      29.658809102321
       156    1   1.000000       24.228163241782      34.664896444587      39.945911495856
       157    1   1.000000       24.195572465477      34.635405849357      50.233013889392
       158    1   1.000000       24.162981689172      34.605915254127      60.520116282927
       159    1   1.000000       24.130390912867      34.576424658897      70.807218676463
       160    1   1.000000       24.097800136562      34.546934063667      81.094321069998
       161    1   1.000000       24.315354437266      45.066675912321       9.084604315250
       162    1   1.000000       24.282763660961      45.037185317091      19.371706708786
       163    1   1.000000       24.250172884656      45.007694721861      29.658809102321
       164    1   1.000000       24.217582108350      44.978204126631      39.945911495856
       165    1   1.000000       24.184991332045      44.948713531401      50.233013889392
       166    1   1.000000       24.152400555740      44.919222936172      60.520116282927
       167    1   1.000000       24.119809779435      44.889732340942      70.807218676463
       168    1   1.000000       24.087219003130      44.860241745712      81.094321069998
       169    1   1.000000       24.304773303834      55.379983594365       9.084604315250
       170    1   1.000000       24.272182527529      55.350492999135      19.371706708786
       171    1   1.000000       24.239591751224      55.321002403906      29.658809102321
       172    1   1.000000       24.207000974919      55.291511808676      39.945911495856
       173    1   1.000000       24.174410198613      55.262021213446      50.233013889392
       174    1   1.000000       24.141819422308      55.232530618216      60.520116282927
       175    1   1.000000       24.109228646003      55.203040022986      70.807218676463
       176    1   1.000000       24.076637869698      55.173549427756      81.094321069998
       177    1   1.000000       24.294192170402      65.693291276410       9.084604315250
       178    1   1.000000       24.261601394097      65.663800681180      19.371706708786
       179    1   1.000000       24.229010617792      65.634310085950      29.658809102321
       180    1   1.000000       24.196419841487      65.604819490720      39.945911495856
       181    1   1.000000       24.163829065182      65.575328895490      50.233013889392
       182    1   1.000000       24.131238288877      65.545838300260      60.520116282927
       183    1   1.000000       24.098647512571      65.516347705030      70.807218676463
       184    1   1.000000       24.066056736266      65.486857109800      81.094321069998
       185    1   1.000000       24.283611036971      76.006598958454       9.084604315250
       186    1   1.000000       24.251020260665      75.977108363224      19.371706708786
       187    1   1.000000       24.218429484360      75.947617767994      29.658809102321
       188    1   1.000000       24.185838708055      75.918127172764      39.945911495856
       189    1   1.000000       24.153247931750      75.888636577534      50.233013889392
       190    1   1.000000       24.120657155445      75.859145982304      60.520116282927
       191    1   1.000000       24.088066379140      75.829655387074      70.807218676463
       192    1   1.000000       24.055475602834      75.800164791844      81.094321069998
       193    1   1.000000       34.637974190993       3.813445184144       9.084604315250
       194    1   1.000000       34.605383414688       3.783954588914      19.371706708786
       195    1   1.000000       34.572792638383       3.754463993684      29.658809102321
       196    1   1.000000       34.540201862078       3.724973398454      39.945911495856
       197    1   1.000000       34.507611085772       3.695482803224      50.233013889392
       198    1   1.000000       34.475020309467       3.665992207994      60.520116282927
       199    1   1.000000       34.442429533162       3.636501612765      70.807218676463
       200    1   1.000000       34.409838756857       3.607011017535      81.094321069998
       201    1   1.000000       34.627393057561      14.126752866188       9.084604315250
       202    1   1.000000       34.594802281256      14.097262270958      19.371706708786
       203    1   1.000000       34.562211504951      14.067771675729      29.658809102321
       204    1   1.000000       34.529620728646      14.038281080499      39.945911495856
       205    1   1.000000       34.497029952341      14.008790485269      50.233013889392
       206    1   1.000000       34.464439176035      13.979299890039      60.520116282927
       207    1   1.000000       34.431848399730      13.949809294809      70.807218676463
       208    1   1.000000       34.399257623425      13.920318699579      81.094321069998
       209    1   1.000000       34.616811924129      24.440060548233       9.084604315250
       210    1   1.000000       34.584221147824      24.410569953003      19.371706708786
       211    1   1.000000       34.551630371519      24.381079357773      29.658809102321
       212    1   1.000000       34.519039595214      24.351588762543      39.945911495856
       213    1   1.000000       34.486448818909      24.322098167313      50.233013889392
       214    1   1.000000       34.453858042604      24.292607572083      60.520116282927
       215    1   1.000000       34.421267266299      24.263116976853      70.807218676463
       216    1   1.000000       34.388676489993      24.233626381623      81.094321069998
       217    1   1.000000       34.606230790698      34.753368230277       9.084604315250
       218    1   1.000000       34.573640014393      34.723877635047      19.371706708786
       219    1   1.000000       34.541049238087      34.694387039817      29.658809102321
       220    1   1.000000       34.508458461782      34.664896444587      39.945911495856
       221    1   1.000000       34.475867685477      34.635405849357      50.233013889392
       222    1   1.000000       34.443276909172      34.605915254127      60.520116282927
       223    1   1.000000       34.410686132867      34.576424658897      70.807218676463
       224    1   1.000000       34.378095356562      34.546934063667      81.094321069998
       225    1   1.000000       34.595649657266      45.066675912321       9.084604315250
       226    1   1.000000       34.563058880961      45.037185317091      19.371706708786
       227    1   1.000000       34.530468104656      45.007694721861      29.658809102321
       228    1   1.000000       34.497877328350      44.978204126631      39.945911495856
       229    1   1.000000       34.465286552045      44.948713531401      50.233013889392
       230    1   1.000000       34.432695775740      44.919222936172      60.520116282927
       231    1   1.000000       34.400104999435      44.889732340942      70.807218676463
       232    1   1.000000       34.367514223130      44.860241745712      81.094321069998
       233    1   1.000000       34.585068523834      55.379983594365       9.084604315250
       234    1   1.000000       34.552477747529      55.350492999135      19.371706708786
       235    1   1.000000       34.519886971224      55.321002403906      29.658809102321
       236    1   1.000000       34.487296194919      55.291511808676      39.945911495856
       237    1   1.000000       34.454705418613      55.262021213446      50.233013889392
       238    1   1.000000       34.422114642308      55.232530618216      60.520116282927
       239    1   1.000000       34.389523866003      55.203040022986      70.807218676463
       240    1   1.000000       34.356933089698      55.173549427756      81.094321069998
       241    1   1.000000       34.574487390402      65.693291276410       9.084604315250
       242    1   1.000000       34.541896614097      65.663800681180      19.371706708786
       243    1   1.000000       34.509305837792      65.634310085950      29.658809102321
       244    1   1.000000       34.476715061487      65.604819490720      39.945911495856
       245    1   1.000000       34.444124285182      65.575328895490      50.233013889392
       246    1   1.000000       34.411533508877      65.545838300260      60.520116282927
       247    1   1.000000       34.378942732571      65.516347705030      70.807218676463
       248    1   1.000000       34.346351956266      65.486857109800      81.094321069998
       249    1   1.000000       34.563906256971      76.006598958454       9.084604315250
       250    1   1.000000       34.531315480665      75.977108363224      19.371706708786
       251    1   1.000000       34.498724704360      75.947617767994      29.658809102321
       252    1   1.000000       34.466133928055      75.918127172764      39.945911495856
       253    1   1.000000       34.433543151750      75.888636577534      50.233013889392
       254    1   1.000000       34.400952375445      75.859145982304      60.520116282927
       255    1   1.000000       34.368361599140      75.829655387074      70.807218676463
       256    1   1.000000       34.335770822834      75.800164791844      81.094321069998
       257    1   1.000000       44.918269410993       3.813445184144       9.084604315250
       258    1   1.000000       44.885678634688       3.783954588914      19.371706708786
       259    1   1.000000       44.853087858383       3.754463993684      29.658809102321
       260    1   1.000000       44.820497082078       3.724973398454      39.945911495856
       261    1   1.000000       44.787906305772       3.695482803224      50.233013889392
       262    1   1.000000       44.755315529467       3.665992207994      60.520116282927
       263    1   1.000000       44.722724753162       3.636501612765      70.807218676463
       264    1   1.000000       44.690133976857       3.607011017535      81.094321069998
       265    1   1.000000       44.907688277561      14.126752866188       9.084604315250
       266    1   1.000000       44.875097501256      14.097262270958      19.371706708786
       267    1   1.000000       44.842506724951      14.067771675729      29.658809102321
       268    1   1.000000       44.809915948646      14.038281080499      39.945911495856
       269    1   1.000000       44.777325172341      14.008790485269      50.233013889392
       270    1   1.000000       44.744734396035      13.979299890039      60.520116282927
       271    1   1.000000       44.712143619730      13.949809294809      70.807218676463
       272    1   1.000000       44.679552843425      13.920318699579      81.094321069998
       273    1   1.000000       44.897107144129      24.440060548233       9.084604315250
       274    1   1.000000       44.864516367824      24.410569953003      19.371706708786
       275    1   1.000000       44.831925591519      24.381079357773      29.658809102321
       276    1   1.000000       44.799334815214      24.351588762543      39.945911495856
       277    1   1.000000       44.766744038909      24.322098167313      50.233013889392
       278    1   1.000000       44.734153262604      24.292607572083      60.520116282927
       279    1   1.000000       44.701562486299      24.263116976853      70.807218676463
       280    1   1.000000       44.668971709993      24.233626381623      81.094321069998
       281    1   1.000000       44.886526010698      34.753368230277       9.084604315250
       282    1   1.000000       44.853935234393      34.723877635047      19.371706708786
       283    1   1.000000       44.821344458087      34.694387039817      29.658809102321
       284    1   1.000000       44.788753681782      34.664896444587      39.945911495856
       285    1   1.000000       44.756162905477      34.635405849357      50.233013889392
       286    1   1.000000       44.723572129172      34.605915254127      60.520116282927
       287    1   1.000000       44.690981352867      34.576424658897      70.807218676463
       288    1   1.000000       44.658390576562      34.546934063667      81.094321069998
       289    1   1.000000       44.875944877266      45.066675912321       9.084604315250
       290    1   1.000000       44.843354100961      45.037185317091      19.371706708786
       291    1   1.000000       44.810763324656      45.007694721861      29.658809102321
       292    1   1.000000       44.778172548350      44.978204126631      39.945911495856
       293    1   1.000000       44.745581772045      44.948713531401      50.233013889392
       294    1   1.000000       44.712990995740      44.919222936172      60.520116282927
       295    1   1.000000       44.680400219435      44.889732340942      70.807218676463
       296    1   1.000000       44.647809443130      44.860241745712      81.094321069998
       297    1   1.000000       44.865363743834      55.379983594365       9.084604315250
       298    1   1.000000       44.832772967529      55.350492999135      19.371706708786
       299    1   1.000000       44.800182191224      55.321002403906      29.658809102321
       300    1   1.000000       44.767591414919      55.291511808676      39.945911495856
       301    1   1.000000       44.735000638613      55.262021213446      50.233013889392
       302    1   1.000000       44.702409862308      55.232530618216      60.520116282927
       303    1   1.000000       44.669819086003      55.203040022986      70.807218676463
       304    1   1.000000       44.637228309698      55.173549427756      81.094321069998
       305    1   1.000000       44.854782610402      65.693291276410       9.084604315250
       306    1   1.000000       44.822191834097      65.663800681180      19.371706708786
       307    1   1.000000       44.789601057792      65.634310085950      29.658809102321
       308    1   1.000000       44.757010281487      65.604819490720      39.945911495856
       309    1   1.000000       44.724419505182      65.575328895490      50.233013889392
       310    1   1.000000       44.691828728877      65.545838300260      60.520116282927
       311    1   1.000000       44.659237952571      65.516347705030      70.807218676463
       312    1   1.000000       44.626647176266      65.486857109800      81.094321069998
       313    1   1.000000       44.844201476971      76.006598958454       9.084604315250
       314    1   1.000000       44.811610700665      75.977108363224      19.371706708786
       315    1   1.000000       44.779019924360      75.947617767994      29.658809102321
       316    1   1.000000       44.746429148055      75.918127172764      39.945911495856
       317    1   1.000000       44.713838371750      75.888636577534      50.233013889392
       318    1   1.000000       44.681247595445      75.859145982304      60.520116282927
       319    1   1.000000       44.648656819140      75.829655387074      70.807218676463
       320    1   1.000000       44.616066042834      75.800164791844      81.094321069998
       321    1   1.000000       55.198564630993       3.813445184144       9.084604315250
       322    1   1.000000       55.165973854688       3.783954588914      19.371706708786
       323    1   1.000000       55.133383078383       3.754463993684      29.658809102321
       324    1   1.000000       55.100792302078       3.724973398454      39.945911495856