 # Li1088 Sc320 Cl2048
 
        3456  atoms
           3  atom types
 
      0.000000000000      41.121180880000  xlo xhi
      0.000000000000      41.253230728177  ylo yhi
      0.000000000000      41.148409574142  zlo zhi
     -0.042324533727      -0.130363105221      -0.117962380920  xy xz yz
 
Masses
 
            1   6.94000000              # Li
            2   44.95591200             # Sc
            3   35.45000000             # Cl
 
Atoms # charge
 
         1    1   1.000000        3.797088529689       3.813445182964       9.084604726734
         2    1   1.000000        3.764497754688       3.783954588914      19.371706708786
         3    1   1.000000        3.731906977079       3.754463992505      29.658809513805
         4    1   1.000000        3.699316202078       3.724973398454      39.945911495856
         5    1   1.000000        3.786507396258      14.126752865009       9.084604726734
         6    1   1.000000        3.753916619952      14.097262269779      19.371707120270
         7    1   1.000000        3.721325843647      14.067771674549      29.658809513805
         8    1   1.000000        3.688735067342      14.038281079319      39.945911907340
         9    1   1.000000        3.775926262826      24.440060547053       9.084604726734
        10    1   1.000000        3.743335486521      24.410569951823      19.371707120270
        11    1   1.000000        3.710744711519      24.381079357773      29.658809102321
        12    1   1.000000        3.678153933910      24.351588761363      39.945911907340
        13    1   1.000000        3.765345129394      34.753368229097       9.084604726734
        14    1   1.000000        3.732754353089      34.723877633867      19.371707120270
        15    1   1.000000        3.700163576784      34.694387038637      29.658809513805
        16    1   1.000000        3.667572800479      34.664896443407      39.945911907340
        17    1   1.000000       14.077383749689       3.813445182964       9.084604726734
        18    1   1.000000       14.044792973384       3.783954587735      19.371707120270
        19    1   1.000000       14.012202197079       3.754463992505      29.658809513805
        20    1   1.000000       13.979611422078       3.724973398454      39.945911495856
        21    1   1.000000       14.066802616258      14.126752865009       9.084604726734
        22    1   1.000000       14.034211841256      14.097262270958      19.371706708786
        23    1   1.000000       14.001621063647      14.067771674549      29.658809513805
        24    1   1.000000       13.969030288646      14.038281080499      39.945911495856
        25    1   1.000000       14.056221482826      24.440060547053       9.084604726734
        26    1   1.000000       14.023630706521      24.410569951823      19.371707120270
        27    1   1.000000       13.991039930216      24.381079356593      29.658809513805
        28    1   1.000000       13.958449155214      24.351588762543      39.945911495856
        29    1   1.000000       14.045640349394      34.753368229097       9.084604726734
        30    1   1.000000       14.013049573089      34.723877633867      19.371707120270
        31    1   1.000000       13.980458798087      34.694387039817      29.658809102321
        32    1   1.000000       13.947868020479      34.664896443407      39.945911907340
        33    1   1.000000       24.357678969689       3.813445182964       9.084604726734
        34    1   1.000000       24.325088193384       3.783954587735      19.371707120270
        35    1   1.000000       24.292497418383       3.754463993684      29.658809102321
        36    1   1.000000       24.259906640774       3.724973397275      39.945911907340
        37    1   1.000000       24.347097836258      14.126752865009       9.084604726734
        38    1   1.000000       24.314507059952      14.097262269779      19.371707120270
        39    1   1.000000       24.281916284951      14.067771675729      29.658809102321
        40    1   1.000000       24.249325508646      14.038281080499      39.945911495856
        41    1   1.000000       24.336516702826      24.440060547053       9.084604726734
        42    1   1.000000       24.303925927824      24.410569953003      19.371706708786
        43    1   1.000000       24.271335150216      24.381079356593      29.658809513805
        44    1   1.000000       24.238744373910      24.351588761363      39.945911907340
        45    1   1.000000       24.325935569394      34.753368229097       9.084604726734
        46    1   1.000000       24.293344793089      34.723877633867      19.371707120270
        47    1   1.000000       24.260754016784      34.694387038637      29.658809513805
        48    1   1.000000       24.228163240479      34.664896443407      39.945911907340
        49    1   1.000000       34.637974189689       3.813445182964       9.084604726734
        50    1   1.000000       34.605383413384       3.783954587735      19.371707120270
        51    1   1.000000       34.572792638383       3.754463993684      29.658809102321
        52    1   1.000000       34.540201860774       3.724973397275      39.945911907340
        53    1   1.000000       34.627393056258      14.126752865009       9.084604726734
        54    1   1.000000       34.594802279952      14.097262269779      19.371707120270
        55    1   1.000000       34.562211504951      14.067771675729      29.658809102321
        56    1   1.000000       34.529620727342      14.038281079319      39.945911907340
        57    1   1.000000       34.616811922826      24.440060547053       9.084604726734
        58    1   1.000000       34.584221146521      24.410569951823      19.371707120270
        59    1   1.000000       34.551630370216      24.381079356593      29.658809513805
        60    1   1.000000       34.519039595214      24.351588762543      39.945911495856
        61    1   1.000000       34.606230789394      34.753368229097       9.084604726734
        62    1   1.000000       34.573640014393      34.723877635047      19.371706708786
        63    1   1.000000       34.541049236784      34.694387038637      29.658809513805
        64    1   1.000000       34.508458461782      34.664896444587      39.945911495856
        65    1   1.000000        5.184972980570       7.733187277603       2.585850823363
        66    1   1.000000        5.152382204265       7.703696682374      12.872953216898
        67    1   1.000000        5.119791427960       7.674206087144      23.160055610434
        68    1   1.000000        5.087200651655       7.644715491914      33.447158003969
        69    1   1.000000        5.174391847138      18.046494959648       2.585850823363
        70    1   1.000000        5.141801070833      18.017004364418      12.872953216898
        71    1   1.000000        5.109210294528      17.987513769188      23.160055610434
        72    1   1.000000        5.076619518223      17.958023173958      33.447158003969
        73    1   1.000000        5.163810713706      28.359802641692       2.585850823363
        74    1   1.000000        5.131219937401      28.330312046462      12.872953216898
        75    1   1.000000        5.098629161096      28.300821451232      23.160055610434
        76    1   1.000000        5.066038384791      28.271330856002      33.447158003969
        77    1   1.000000        5.153229580275      38.673110323736       2.585850823363
        78    1   1.000000        5.120638803970      38.643619728506      12.872953216898
        79    1   1.000000        5.088048027664      38.614129133276      23.160055610434
        80    1   1.000000        5.055457251359      38.584638538047      33.447158003969
        81    1   1.000000       15.465268200570       7.733187277603       2.585850823363
        82    1   1.000000       15.432677424265       7.703696682374      12.872953216898
        83    1   1.000000       15.400086647960       7.674206087144      23.160055610434
        84    1   1.000000       15.367495871655       7.644715491914      33.447158003969
        85    1   1.000000       15.454687067138      18.046494959648       2.585850823363
        86    1   1.000000       15.422096290833      18.017004364418      12.872953216898
        87    1   1.000000       15.389505514528      17.987513769188      23.160055610434
        88    1   1.000000       15.356914738223      17.958023173958      33.447158003969
        89    1   1.000000       15.444105933706      28.359802641692       2.585850823363
        90    1   1.000000       15.411515157401      28.330312046462      12.872953216898
        91    1   1.000000       15.378924381096      28.300821451232      23.160055610434
        92    1   1.000000       15.346333604791      28.271330856002      33.447158003969
        93    1   1.000000       15.433524800275      38.673110323736       2.585850823363
        94    1   1.000000       15.400934023970      38.643619728506      12.872953216898
        95    1   1.000000       15.368343247664      38.614129133276      23.160055610434
        96    1   1.000000       15.335752471359      38.584638538047      33.447158003969
        97    1   1.000000       25.745563420570       7.733187277603       2.585850823363
        98    1   1.000000       25.712972644265       7.703696682374      12.872953216898
        99    1   1.000000       25.680381867960       7.674206087144      23.160055610434
       100    1   1.000000       25.647791091655       7.644715491914      33.447158003969
       101    1   1.000000       25.734982287138      18.046494959648       2.585850823363
       102    1   1.000000       25.702391510833      18.017004364418      12.872953216898
       103    1   1.000000       25.669800734528      17.987513769188      23.160055610434
       104    1   1.000000       25.637209958223      17.958023173958      33.447158003969
       105    1   1.000000       25.724401153706      28.359802641692       2.585850823363
       106    1   1.000000       25.691810377401      28.330312046462      12.872953216898
       107    1   1.000000       25.659219601096      28.300821451232      23.160055610434
       108    1   1.000000       25.626628824791      28.271330856002      33.447158003969
       109    1   1.000000       25.713820020275      38.673110323736       2.585850823363
       110    1   1.000000       25.681229243970      38.643619728506      12.872953216898
       111    1   1.000000       25.648638467664      38.614129133276      23.160055610434
       112    1   1.000000       25.616047691359      38.584638538047      33.447158003969
       113    1   1.000000       36.025858640570       7.733187277603       2.585850823363
       114    1   1.000000       35.993267864265       7.703696682374      12.872953216898
       115    1   1.000000       35.960677087960       7.674206087144      23.160055610434
       116    1   1.000000       35.928086311655       7.644715491914      33.447158003969
       117    1   1.000000       36.015277507138      18.046494959648       2.585850823363
       118    1   1.000000       35.982686730833      18.017004364418      12.872953216898
       119    1   1.000000       35.950095954528      17.987513769188      23.160055610434
       120    1   1.000000       35.917505178223      17.958023173958      33.447158003969
       121    1   1.000000       36.004696373706      28.359802641692       2.585850823363
       122    1   1.000000       35.972105597401      28.330312046462      12.872953216898
       123    1   1.000000       35.939514821096      28.300821451232      23.160055610434
       124    1   1.000000       35.906924044791      28.271330856002      33.447158003969
       125    1   1.000000       35.994115240275      38.673110323736       2.585850823363
       126    1   1.000000       35.961524463970      38.643619728506      12.872953216898
       127    1   1.000000       35.928933687664      38.614129133276      23.160055610434
       128    1   1.000000       35.896342911359      38.584638538047      33.447158003969
       129    1   1.000000        2.654636599347       7.609826619702       5.315779510977
       130    1   1.000000        2.622045824345       7.580336025652      15.602881493028
       131    1   1.000000        2.589455048040       7.550845430422      25.889983886563
       132    1   1.000000        2.556864271735       7.521354835192      36.177086280099
       133    1   1.000000        2.644055465915      17.923134301747       5.315779510977
       134    1   1.000000        2.611464689610      17.893643706517      15.602881904512
       135    1   1.000000        2.578873914608      17.864153112466      25.889983886563
       136    1   1.000000        2.546283138303      17.834662517236      36.177086280099
       137    1   1.000000        2.633474333787      28.236441984970       5.315779099493
       138    1   1.000000        2.600883557482      28.206951389740      15.602881493028
       139    1   1.000000        2.568292779873      28.177460793331      25.889984298048
       140    1   1.000000        2.535702003568      28.147970198101      36.177086691583
       141    1   1.000000        2.622893200355      38.549749667015       5.315779099493
       142    1   1.000000        2.590302422746      38.520259070605      15.602881904512
       143    1   1.000000        2.557711646441      38.490768475375      25.889984298048
       144    1   1.000000        2.525120870136      38.461277880145      36.177086691583
       145    1   1.000000       12.934931819347       7.609826619702       5.315779510977
       146    1   1.000000       12.902341043042       7.580336024472      15.602881904512
       147    1   1.000000       12.869750268040       7.550845430422      25.889983886563
       148    1   1.000000       12.837159491735       7.521354835192      36.177086280099
       149    1   1.000000       12.924350687219      17.923134302926       5.315779099493
       150    1   1.000000       12.891759909610      17.893643706517      15.602881904512
       151    1   1.000000       12.859169134608      17.864153112466      25.889983886563
       152    1   1.000000       12.826578358303      17.834662517236      36.177086280099
       153    1   1.000000       12.913769553787      28.236441984970       5.315779099493
       154    1   1.000000       12.881178776178      28.206951388561      15.602881904512
       155    1   1.000000       12.848587999873      28.177460793331      25.889984298048
       156    1   1.000000       12.815997223568      28.147970198101      36.177086691583
       157    1   1.000000       12.903188419052      38.549749665835       5.315779510977
       158    1   1.000000       12.870597644050      38.520259071785      15.602881493028
       159    1   1.000000       12.838006867745      38.490768476555      25.889983886563
       160    1   1.000000       12.805416090136      38.461277880145      36.177086691583
       161    1   1.000000       23.215227039347       7.609826619702       5.315779510977
       162    1   1.000000       23.182636263042       7.580336024472      15.602881904512
       163    1   1.000000       23.150045488040       7.550845430422      25.889983886563
       164    1   1.000000       23.117454710431       7.521354834013      36.177086691583
       165    1   1.000000       23.204645907219      17.923134302926       5.315779099493
       166    1   1.000000       23.172055129610      17.893643706517      15.602881904512
       167    1   1.000000       23.139464354608      17.864153112466      25.889983886563
       168    1   1.000000       23.106873577000      17.834662516057      36.177086691583
       169    1   1.000000       23.194064773787      28.236441984970       5.315779099493
       170    1   1.000000       23.161473996178      28.206951388561      15.602881904512
       171    1   1.000000       23.128883219873      28.177460793331      25.889984298048
       172    1   1.000000       23.096292443568      28.147970198101      36.177086691583
       173    1   1.000000       23.183483639051      38.549749665835       5.315779510977
       174    1   1.000000       23.150892862746      38.520259070605      15.602881904512
       175    1   1.000000       23.118302086441      38.490768475375      25.889984298048
       176    1   1.000000       23.085711310136      38.461277880145      36.177086691583
       177    1   1.000000       33.495522259347       7.609826619702       5.315779510977
       178    1   1.000000       33.462931484345       7.580336025652      15.602881493028
       179    1   1.000000       33.430340708040       7.550845430422      25.889983886563
       180    1   1.000000       33.397749930431       7.521354834013      36.177086691583
       181    1   1.000000       33.484941127219      17.923134302926       5.315779099493
       182    1   1.000000       33.452350350914      17.893643707696      15.602881493028
       183    1   1.000000       33.419759573305      17.864153111287      25.889984298048
       184    1   1.000000       33.387168797000      17.834662516057      36.177086691583
       185    1   1.000000       33.474359992483      28.236441983791       5.315779510977
       186    1   1.000000       33.441769216178      28.206951388561      15.602881904512
       187    1   1.000000       33.409178441177      28.177460794511      25.889983886563
       188    1   1.000000       33.376587664871      28.147970199281      36.177086280099
       189    1   1.000000       33.463778860355      38.549749667015       5.315779099493
       190    1   1.000000       33.431188084050      38.520259071785      15.602881493028
       191    1   1.000000       33.398597307745      38.490768476555      25.889983886563
       192    1   1.000000       33.366006531440      38.461277881325      36.177086280099
       193    1   1.000000        7.704786669786       5.097068630963       2.579689260513
       194    1   1.000000        7.672195893481       5.067578035733      12.866791654049
       195    1   1.000000        7.639605117176       5.038087440503      23.153894047584
       196    1   1.000000        7.607014339567       5.008596844094      33.440996852604
       197    1   1.000000        7.694205536354      15.410376313007       2.579689260513
       198    1   1.000000        7.661614760049      15.380885717777      12.866791654049
       199    1   1.000000        7.629023983744      15.351395122547      23.153894047584
       200    1   1.000000        7.596433206135      15.321904526138      33.440996852604
       201    1   1.000000        7.683624402923      25.723683995052       2.579689260513
       202    1   1.000000        7.651033626617      25.694193399822      12.866791654049
       203    1   1.000000        7.618442849009      25.664702803412      23.153894459068
       204    1   1.000000        7.585852074007      25.635212209362      33.440996441119
       205    1   1.000000        7.673043269491      36.036991677096       2.579689260513
       206    1   1.000000        7.640452493186      36.007501081866      12.866791654049
       207    1   1.000000        7.607861715577      35.978010485456      23.153894459068
       208    1   1.000000        7.575270940575      35.948519891406      33.440996441119
       209    1   1.000000       17.985081889786       5.097068630963       2.579689260513
       210    1   1.000000       17.952491113481       5.067578035733      12.866791654049
       211    1   1.000000       17.919900337176       5.038087440503      23.153894047584
       212    1   1.000000       17.887309560871       5.008596845273      33.440996441119
       213    1   1.000000       17.974500756354      15.410376313007       2.579689260513
       214    1   1.000000       17.941909980049      15.380885717777      12.866791654049
       215    1   1.000000       17.909319203744      15.351395122547      23.153894047584
       216    1   1.000000       17.876728427439      15.321904527318      33.440996441119
       217    1   1.000000       17.963919622923      25.723683995052       2.579689260513
       218    1   1.000000       17.931328846617      25.694193399822      12.866791654049
       219    1   1.000000       17.898738069009      25.664702803412      23.153894459068
       220    1   1.000000       17.866147292703      25.635212208182      33.440996852604
       221    1   1.000000       17.953338489491      36.036991677096       2.579689260513
       222    1   1.000000       17.920747713186      36.007501081866      12.866791654049
       223    1   1.000000       17.888156935577      35.978010485456      23.153894459068
       224    1   1.000000       17.855566160575      35.948519891406      33.440996441119
       225    1   1.000000       28.265377109786       5.097068630963       2.579689260513
       226    1   1.000000       28.232786332177       5.067578034553      12.866792065533
       227    1   1.000000       28.200195557176       5.038087440503      23.153894047584
       228    1   1.000000       28.167604780871       5.008596845273      33.440996441119
       229    1   1.000000       28.254795976354      15.410376313007       2.579689260513
       230    1   1.000000       28.222205200049      15.380885717777      12.866791654049
       231    1   1.000000       28.189614423744      15.351395122547      23.153894047584
       232    1   1.000000       28.157023647439      15.321904527318      33.440996441119
       233    1   1.000000       28.244214842923      25.723683995052       2.579689260513
       234    1   1.000000       28.211624066617      25.694193399822      12.866791654049
       235    1   1.000000       28.179033290312      25.664702804592      23.153894047584
       236    1   1.000000       28.146442512703      25.635212208182      33.440996852604
       237    1   1.000000       28.233633709491      36.036991677096       2.579689260513
       238    1   1.000000       28.201042933186      36.007501081866      12.866791654049
       239    1   1.000000       28.168452156880      35.978010486636      23.153894047584
       240    1   1.000000       28.135861379272      35.948519890226      33.440996852604
       241    1   1.000000       38.545672329786       5.097068630963       2.579689260513
       242    1   1.000000       38.513081553481       5.067578035733      12.866791654049
       243    1   1.000000       38.480490777176       5.038087440503      23.153894047584
       244    1   1.000000       38.447900000871       5.008596845273      33.440996441119
       245    1   1.000000       38.535091196354      15.410376313007       2.579689260513
       246    1   1.000000       38.502500420049      15.380885717777      12.866791654049
       247    1   1.000000       38.469909642440      15.351395121368      23.153894459068
       248    1   1.000000       38.437318867439      15.321904527318      33.440996441119
       249    1   1.000000       38.524510062923      25.723683995052       2.579689260513
       250    1   1.000000       38.491919285314      25.694193398642      12.866792065533
       251    1   1.000000       38.459328510312      25.664702804592      23.153894047584
       252    1   1.000000       38.426737732703      25.635212208182      33.440996852604
       253    1   1.000000       38.513928929491      36.036991677096       2.579689260513
       254    1   1.000000       38.481338153186      36.007501081866      12.866791654049
       255    1   1.000000       38.448747376880      35.978010486636      23.153894047584
       256    1   1.000000       38.416156599272      35.948519890226      33.440996852604
       257    1   1.000000        5.183774757588       0.140759746415       5.203356706727
       258    1   1.000000        5.151183981283       0.111269151185      15.490459100262
       259    1   1.000000        5.118593204978       0.081778555955      25.777561493798
       260    1   1.000000        5.086002428672       0.052287960726      36.064663887333
       261    1   1.000000        5.173193624579      10.454067015927       5.203356706727
       262    1   1.000000        5.140602848274      10.424576420697      15.490459100262
       263    1   1.000000        5.108012071969      10.395085825467      25.777561493798
       264    1   1.000000        5.075421295664      10.365595230238      36.064663887333
       265    1   1.000000        5.162612490724      20.767375110504       5.203356706727
       266    1   1.000000        5.130021714419      20.737884515274      15.490459100262
       267    1   1.000000        5.097430938114      20.708393920044      25.777561493798
       268    1   1.000000        5.064840161809      20.678903324814      36.064663887333
       269    1   1.000000        5.152031357292      31.080682792548       5.203356706727
       270    1   1.000000        5.119440580987      31.051192197318      15.490459100262
       271    1   1.000000        5.086849804682      31.021701602088      25.777561493798
       272    1   1.000000        5.054259028377      30.992211006858      36.064663887333
       273    1   1.000000       15.464069977588       0.140759746415       5.203356706727
       274    1   1.000000       15.431479201283       0.111269151185      15.490459100262
       275    1   1.000000       15.398888424978       0.081778555955      25.777561493798
       276    1   1.000000       15.366297648672       0.052287960726      36.064663887333
       277    1   1.000000       15.453488844579      10.454067015927       5.203356706727
       278    1   1.000000       15.420898068274      10.424576420697      15.490459100262
       279    1   1.000000       15.388307291969      10.395085825467      25.777561493798
       280    1   1.000000       15.355716515664      10.365595230238      36.064663887333
       281    1   1.000000       15.442907710724      20.767375110504       5.203356706727
       282    1   1.000000       15.410316934419      20.737884515274      15.490459100262
       283    1   1.000000       15.377726158114      20.708393920044      25.777561493798
       284    1   1.000000       15.345135381809      20.678903324814      36.064663887333
       285    1   1.000000       15.432326577292      31.080682792548       5.203356706727
       286    1   1.000000       15.399735800987      31.051192197318      15.490459100262
       287    1   1.000000       15.367145024682      31.021701602088      25.777561493798
       288    1   1.000000       15.334554248377      30.992211006858      36.064663887333
       289    1   1.000000       25.744365197588       0.140759746415       5.203356706727
       290    1   1.000000       25.711774421283       0.111269151185      15.490459100262
       291    1   1.000000       25.679183644978       0.081778555955      25.777561493798
       292    1   1.000000       25.646592868672       0.052287960726      36.064663887333
       293    1   1.000000       25.733784064579      10.454067015927       5.203356706727
       294    1   1.000000       25.701193288274      10.424576420697      15.490459100262
       295    1   1.000000       25.668602511969      10.395085825467      25.777561493798
       296    1   1.000000       25.636011735664      10.365595230238      36.064663887333
       297    1   1.000000       25.723202930724      20.767375110504       5.203356706727
       298    1   1.000000       25.690612154419      20.737884515274      15.490459100262
       299    1   1.000000       25.658021378114      20.708393920044      25.777561493798
       300    1   1.000000       25.625430601809      20.678903324814      36.064663887333
       301    1   1.000000       25.712621797292      31.080682792548       5.203356706727
       302    1   1.000000       25.680031020987      31.051192197318      15.490459100262
       303    1   1.000000       25.647440244682      31.021701602088      25.777561493798
       304    1   1.000000       25.614849468377      30.992211006858      36.064663887333
       305    1   1.000000       36.024660417588       0.140759746415       5.203356706727
       306    1   1.000000       35.992069641283       0.111269151185      15.490459100262
       307    1   1.000000       35.959478864978       0.081778555955      25.777561493798
       308    1   1.000000       35.926888088672       0.052287960726      36.064663887333
       309    1   1.000000       36.014079284579      10.454067015927       5.203356706727
       310    1   1.000000       35.981488508274      10.424576420697      15.490459100262
       311    1   1.000000       35.948897731969      10.395085825467      25.777561493798
       312    1   1.000000       35.916306955664      10.365595230238      36.064663887333
       313    1   1.000000       36.003498150724      20.767375110504       5.203356706727
       314    1   1.000000       35.970907374419      20.737884515274      15.490459100262
       315    1   1.000000       35.938316598114      20.708393920044      25.777561493798
       316    1   1.000000       35.905725821809      20.678903324814      36.064663887333
       317    1   1.000000       35.992917017292      31.080682792548       5.203356706727
       318    1   1.000000       35.960326240987      31.051192197318      15.490459100262
       319    1   1.000000       35.927735464682      31.021701602088      25.777561493798
       320    1   1.000000       35.895144688377      30.992211006858      36.064663887333
       321    1   1.000000        7.932106375442       7.960786480029       0.061455972667
       322    1   1.000000        7.899515599137       7.931295884799      10.348558366203
       323    1   1.000000        7.866924822832       7.901805289569      20.635660759738
       324    1   1.000000        7.834334046526       7.872314694339      30.922763153273