 # Li1088 Sc320 Cl2048
 
        3456  atoms
           3  atom types
 
      0.000000000000      41.614800000000  xlo xhi
      0.000000000000      41.614800000000  ylo yhi
      0.000000000000      41.614800000000  zlo zhi
 
Masses
 
            1   6.94000000              # Li
            2   44.95591200             # Sc
            3   35.45000000             # Cl
 
Atoms # charge
 
         1    1   1.000000        3.901387500000       3.901387500000       9.103237500000
         2    1   1.000000        3.901387500000       3.901387500000      19.506937500000
         3    1   1.000000        3.901387500000       3.901387500000      29.910637500000
         4    1   1.000000        3.901387500000       3.901387500000      40.314337500000
         5    1   1.000000        3.901387500000      14.305087500000       9.103237500000
         6    1   1.000000        3.901387500000      14.305087500000      19.506937500000
         7    1   1.000000        3.901387500000      14.305087500000      29.910637500000
         8    1   1.000000        3.901387500000      14.305087500000      40.314337500000
         9    1   1.000000        3.901387500000      24.708787500000       9.103237500000
        10    1   1.000000        3.901387500000      24.708787500000      19.506937500000
        11    1   1.000000        3.901387500000      24.708787500000      29.910637500000
        12    1   1.000000        3.901387500000      24.708787500000      40.314337500000
        13    1   1.000000        3.901387500000      35.112487500000       9.103237500000
        14    1   1.000000        3.901387500000      35.112487500000      19.506937500000
        15    1   1.000000        3.901387500000      35.112487500000      29.910637500000
        16    1   1.000000        3.901387500000      35.112487500000      40.314337500000
        17    1   1.000000       14.305087500000       3.901387500000       9.103237500000
        18    1   1.000000       14.305087500000       3.901387500000      19.506937500000
        19    1   1.000000       14.305087500000       3.901387500000      29.910637500000
        20    1   1.000000       14.305087500000       3.901387500000      40.314337500000
        21    1   1.000000       14.305087500000      14.305087500000       9.103237500000
        22    1   1.000000       14.305087500000      14.305087500000      19.506937500000
        23    1   1.000000       14.305087500000      14.305087500000      29.910637500000
        24    1   1.000000       14.305087500000      14.305087500000      40.314337500000
        25    1   1.000000       14.305087500000      24.708787500000       9.103237500000
        26    1   1.000000       14.305087500000      24.708787500000      19.506937500000
        27    1   1.000000       14.305087500000      24.708787500000      29.910637500000
        28    1   1.000000       14.305087500000      24.708787500000      40.314337500000
        29    1   1.000000       14.305087500000      35.112487500000       9.103237500000
        30    1   1.000000       14.305087500000      35.112487500000      19.506937500000
        31    1   1.000000       14.305087500000      35.112487500000      29.910637500000
        32    1   1.000000       14.305087500000      35.112487500000      40.314337500000
        33    1   1.000000       24.708787500000       3.901387500000       9.103237500000
        34    1   1.000000       24.708787500000       3.901387500000      19.506937500000
        35    1   1.000000       24.708787500000       3.901387500000      29.910637500000
        36    1   1.000000       24.708787500000       3.901387500000      40.314337500000
        37    1   1.000000       24.708787500000      14.305087500000       9.103237500000
        38    1   1.000000       24.708787500000      14.305087500000      19.506937500000
        39    1   1.000000       24.708787500000      14.305087500000      29.910637500000
        40    1   1.000000       24.708787500000      14.305087500000      40.314337500000
        41    1   1.000000       24.708787500000      24.708787500000       9.103237500000
        42    1   1.000000       24.708787500000      24.708787500000      19.506937500000
        43    1   1.000000       24.708787500000      24.708787500000      29.910637500000
        44    1   1.000000       24.708787500000      24.708787500000      40.314337500000
        45    1   1.000000       24.708787500000      35.112487500000       9.103237500000
        46    1   1.000000       24.708787500000      35.112487500000      19.506937500000
        47    1   1.000000       24.708787500000      35.112487500000      29.910637500000
        48    1   1.000000       24.708787500000      35.112487500000      40.314337500000
        49    1   1.000000       35.112487500000       3.901387500000       9.103237500000
        50    1   1.000000       35.112487500000       3.901387500000      19.506937500000
        51    1   1.000000       35.112487500000       3.901387500000      29.910637500000
        52    1   1.000000       35.112487500000       3.901387500000      40.314337500000
        53    1   1.000000       35.112487500000      14.305087500000       9.103237500000
        54    1   1.000000       35.112487500000      14.305087500000      19.506937500000
        55    1   1.000000       35.112487500000      14.305087500000      29.910637500000
        56    1   1.000000       35.112487500000      14.305087500000      40.314337500000
        57    1   1.000000       35.112487500000      24.708787500000       9.103237500000
        58    1   1.000000       35.112487500000      24.708787500000      19.506937500000
        59    1   1.000000       35.112487500000      24.708787500000      29.910637500000
        60    1   1.000000       35.112487500000      24.708787500000      40.314337500000
        61    1   1.000000       35.112487500000      35.112487500000       9.103237500000
        62    1   1.000000       35.112487500000      35.112487500000      19.506937500000
        63    1   1.000000       35.112487500000      35.112487500000      29.910637500000
        64    1   1.000000       35.112487500000      35.112487500000      40.314337500000
        65    1   1.000000        2.600925000000       2.600925000000      41.614800000000
        66    1   1.000000        2.600925000000       2.600925000000      10.403700000000
        67    1   1.000000        2.600925000000       2.600925000000      20.807400000000
        68    1   1.000000        2.600925000000       2.600925000000      31.211100000000
        69    1   1.000000        2.600925000000      13.004625000000      41.614800000000
        70    1   1.000000        2.600925000000      13.004625000000      10.403700000000
        71    1   1.000000        2.600925000000      13.004625000000      20.807400000000
        72    1   1.000000        2.600925000000      13.004625000000      31.211100000000
        73    1   1.000000        2.600925000000      23.408325000000      41.614800000000
        74    1   1.000000        2.600925000000      23.408325000000      10.403700000000
        75    1   1.000000        2.600925000000      23.408325000000      20.807400000000
        76    1   1.000000        2.600925000000      23.408325000000      31.211100000000
        77    1   1.000000        2.600925000000      33.812025000000      41.614800000000
        78    1   1.000000        2.600925000000      33.812025000000      10.403700000000
        79    1   1.000000        2.600925000000      33.812025000000      20.807400000000
        80    1   1.000000        2.600925000000      33.812025000000      31.211100000000
        81    1   1.000000       13.004625000000       2.600925000000       0.000000000000
        82    1   1.000000       13.004625000000       2.600925000000      10.403700000000
        83    1   1.000000       13.004625000000       2.600925000000      20.807400000000
        84    1   1.000000       13.004625000000       2.600925000000      31.211100000000
        85    1   1.000000       13.004625000000      13.004625000000      41.614800000000
        86    1   1.000000       13.004625000000      13.004625000000      10.403700000000
        87    1   1.000000       13.004625000000      13.004625000000      20.807400000000
        88    1   1.000000       13.004625000000      13.004625000000      31.211100000000
        89    1   1.000000       13.004625000000      23.408325000000      41.614800000000
        90    1   1.000000       13.004625000000      23.408325000000      10.403700000000
        91    1   1.000000       13.004625000000      23.408325000000      20.807400000000
        92    1   1.000000       13.004625000000      23.408325000000      31.211100000000
        93    1   1.000000       13.004625000000      33.812025000000      41.614800000000
        94    1   1.000000       13.004625000000      33.812025000000      10.403700000000
        95    1   1.000000       13.004625000000      33.812025000000      20.807400000000
        96    1   1.000000       13.004625000000      33.812025000000      31.211100000000
        97    1   1.000000       23.408325000000       2.600925000000       0.000000000000
        98    1   1.000000       23.408325000000       2.600925000000      10.403700000000
        99    1   1.000000       23.408325000000       2.600925000000      20.807400000000
       100    1   1.000000       23.408325000000       2.600925000000      31.211100000000
       101    1   1.000000       23.408325000000      13.004625000000       0.000000000000
       102    1   1.000000       23.408325000000      13.004625000000      10.403700000000
       103    1   1.000000       23.408325000000      13.004625000000      20.807400000000
       104    1   1.000000       23.408325000000      13.004625000000      31.211100000000
       105    1   1.000000       23.408325000000      23.408325000000       0.000000000000
       106    1   1.000000       23.408325000000      23.408325000000      10.403700000000
       107    1   1.000000       23.408325000000      23.408325000000      20.807400000000
       108    1   1.000000       23.408325000000      23.408325000000      31.211100000000
       109    1   1.000000       23.408325000000      33.812025000000      41.614800000000
       110    1   1.000000       23.408325000000      33.812025000000      10.403700000000
       111    1   1.000000       23.408325000000      33.812025000000      20.807400000000
       112    1   1.000000       23.408325000000      33.812025000000      31.211100000000
       113    1   1.000000       33.812025000000       2.600925000000      41.614800000000
       114    1   1.000000       33.812025000000       2.600925000000      10.403700000000
       115    1   1.000000       33.812025000000       2.600925000000      20.807400000000
       116    1   1.000000       33.812025000000       2.600925000000      31.211100000000
       117    1   1.000000       33.812025000000      13.004625000000      41.614800000000
       118    1   1.000000       33.812025000000      13.004625000000      10.403700000000
       119    1   1.000000       33.812025000000      13.004625000000      20.807400000000
       120    1   1.000000       33.812025000000      13.004625000000      31.211100000000
       121    1   1.000000       33.812025000000      23.408325000000       0.000000000000
       122    1   1.000000       33.812025000000      23.408325000000      10.403700000000
       123    1   1.000000       33.812025000000      23.408325000000      20.807400000000
       124    1   1.000000       33.812025000000      23.408325000000      31.211100000000
       125    1   1.000000       33.812025000000      33.812025000000      41.614800000000
       126    1   1.000000       33.812025000000      33.812025000000      10.403700000000
       127    1   1.000000       33.812025000000      33.812025000000      20.807400000000
       128    1   1.000000       33.812025000000      33.812025000000      31.211100000000
       129    1   1.000000        2.600925000000       5.201850000000       7.802775000000
       130    1   1.000000        2.600925000000       5.201850000000      18.206475000000
       131    1   1.000000        2.600925000000       5.201850000000      28.610175000000
       132    1   1.000000        2.600925000000       5.201850000000      39.013875000000
       133    1   1.000000        2.600925000000      15.605550000000       7.802775000000
       134    1   1.000000        2.600925000000      15.605550000000      18.206475000000
       135    1   1.000000        2.600925000000      15.605550000000      28.610175000000
       136    1   1.000000        2.600925000000      15.605550000000      39.013875000000
       137    1   1.000000        2.600925000000      26.009250000000       7.802775000000
       138    1   1.000000        2.600925000000      26.009250000000      18.206475000000
       139    1   1.000000        2.600925000000      26.009250000000      28.610175000000
       140    1   1.000000        2.600925000000      26.009250000000      39.013875000000
       141    1   1.000000        2.600925000000      36.412950000000       7.802775000000
       142    1   1.000000        2.600925000000      36.412950000000      18.206475000000
       143    1   1.000000        2.600925000000      36.412950000000      28.610175000000
       144    1   1.000000        2.600925000000      36.412950000000      39.013875000000
       145    1   1.000000       13.004625000000       5.201850000000       7.802775000000
       146    1   1.000000       13.004625000000       5.201850000000      18.206475000000
       147    1   1.000000       13.004625000000       5.201850000000      28.610175000000
       148    1   1.000000       13.004625000000       5.201850000000      39.013875000000
       149    1   1.000000       13.004625000000      15.605550000000       7.802775000000
       150    1   1.000000       13.004625000000      15.605550000000      18.206475000000
       151    1   1.000000       13.004625000000      15.605550000000      28.610175000000
       152    1   1.000000       13.004625000000      15.605550000000      39.013875000000
       153    1   1.000000       13.004625000000      26.009250000000       7.802775000000
       154    1   1.000000       13.004625000000      26.009250000000      18.206475000000
       155    1   1.000000       13.004625000000      26.009250000000      28.610175000000
       156    1   1.000000       13.004625000000      26.009250000000      39.013875000000
       157    1   1.000000       13.004625000000      36.412950000000       7.802775000000
       158    1   1.000000       13.004625000000      36.412950000000      18.206475000000
       159    1   1.000000       13.004625000000      36.412950000000      28.610175000000
       160    1   1.000000       13.004625000000      36.412950000000      39.013875000000
       161    1   1.000000       23.408325000000       5.201850000000       7.802775000000
       162    1   1.000000       23.408325000000       5.201850000000      18.206475000000
       163    1   1.000000       23.408325000000       5.201850000000      28.610175000000
       164    1   1.000000       23.408325000000       5.201850000000      39.013875000000
       165    1   1.000000       23.408325000000      15.605550000000       7.802775000000
       166    1   1.000000       23.408325000000      15.605550000000      18.206475000000
       167    1   1.000000       23.408325000000      15.605550000000      28.610175000000
       168    1   1.000000       23.408325000000      15.605550000000      39.013875000000
       169    1   1.000000       23.408325000000      26.009250000000       7.802775000000
       170    1   1.000000       23.408325000000      26.009250000000      18.206475000000
       171    1   1.000000       23.408325000000      26.009250000000      28.610175000000
       172    1   1.000000       23.408325000000      26.009250000000      39.013875000000
       173    1   1.000000       23.408325000000      36.412950000000       7.802775000000
       174    1   1.000000       23.408325000000      36.412950000000      18.206475000000
       175    1   1.000000       23.408325000000      36.412950000000      28.610175000000
       176    1   1.000000       23.408325000000      36.412950000000      39.013875000000
       177    1   1.000000       33.812025000000       5.201850000000       7.802775000000
       178    1   1.000000       33.812025000000       5.201850000000      18.206475000000
       179    1   1.000000       33.812025000000       5.201850000000      28.610175000000
       180    1   1.000000       33.812025000000       5.201850000000      39.013875000000
       181    1   1.000000       33.812025000000      15.605550000000       7.802775000000
       182    1   1.000000       33.812025000000      15.605550000000      18.206475000000
       183    1   1.000000       33.812025000000      15.605550000000      28.610175000000
       184    1   1.000000       33.812025000000      15.605550000000      39.013875000000
       185    1   1.000000       33.812025000000      26.009250000000       7.802775000000
       186    1   1.000000       33.812025000000      26.009250000000      18.206475000000
       187    1   1.000000       33.812025000000      26.009250000000      28.610175000000
       188    1   1.000000       33.812025000000      26.009250000000      39.013875000000
       189    1   1.000000       33.812025000000      36.412950000000       7.802775000000
       190    1   1.000000       33.812025000000      36.412950000000      18.206475000000
       191    1   1.000000       33.812025000000      36.412950000000      28.610175000000
       192    1   1.000000       33.812025000000      36.412950000000      39.013875000000
       193    1   1.000000        5.201850000000       0.000000000000       5.201850000000
       194    1   1.000000        5.201850000000       0.000000000000      15.605550000000
       195    1   1.000000        5.201850000000       0.000000000000      26.009250000000
       196    1   1.000000        5.201850000000       0.000000000000      36.412950000000
       197    1   1.000000        5.201850000000      10.403700000000       5.201850000000
       198    1   1.000000        5.201850000000      10.403700000000      15.605550000000
       199    1   1.000000        5.201850000000      10.403700000000      26.009250000000
       200    1   1.000000        5.201850000000      10.403700000000      36.412950000000
       201    1   1.000000        5.201850000000      20.807400000000       5.201850000000
       202    1   1.000000        5.201850000000      20.807400000000      15.605550000000
       203    1   1.000000        5.201850000000      20.807400000000      26.009250000000
       204    1   1.000000        5.201850000000      20.807400000000      36.412950000000
       205    1   1.000000        5.201850000000      31.211100000000       5.201850000000
       206    1   1.000000        5.201850000000      31.211100000000      15.605550000000
       207    1   1.000000        5.201850000000      31.211100000000      26.009250000000
       208    1   1.000000        5.201850000000      31.211100000000      36.412950000000
       209    1   1.000000       15.605550000000       0.000000000000       5.201850000000
       210    1   1.000000       15.605550000000       0.000000000000      15.605550000000
       211    1   1.000000       15.605550000000       0.000000000000      26.009250000000
       212    1   1.000000       15.605550000000       0.000000000000      36.412950000000
       213    1   1.000000       15.605550000000      10.403700000000       5.201850000000
       214    1   1.000000       15.605550000000      10.403700000000      15.605550000000
       215    1   1.000000       15.605550000000      10.403700000000      26.009250000000
       216    1   1.000000       15.605550000000      10.403700000000      36.412950000000
       217    1   1.000000       15.605550000000      20.807400000000       5.201850000000
       218    1   1.000000       15.605550000000      20.807400000000      15.605550000000
       219    1   1.000000       15.605550000000      20.807400000000      26.009250000000
       220    1   1.000000       15.605550000000      20.807400000000      36.412950000000
       221    1   1.000000       15.605550000000      31.211100000000       5.201850000000
       222    1   1.000000       15.605550000000      31.211100000000      15.605550000000
       223    1   1.000000       15.605550000000      31.211100000000      26.009250000000
       224    1   1.000000       15.605550000000      31.211100000000      36.412950000000
       225    1   1.000000       26.009250000000       0.000000000000       5.201850000000
       226    1   1.000000       26.009250000000       0.000000000000      15.605550000000
       227    1   1.000000       26.009250000000       0.000000000000      26.009250000000
       228    1   1.000000       26.009250000000       0.000000000000      36.412950000000
       229    1   1.000000       26.009250000000      10.403700000000       5.201850000000
       230    1   1.000000       26.009250000000      10.403700000000      15.605550000000
       231    1   1.000000       26.009250000000      10.403700000000      26.009250000000
       232    1   1.000000       26.009250000000      10.403700000000      36.412950000000
       233    1   1.000000       26.009250000000      20.807400000000       5.201850000000
       234    1   1.000000       26.009250000000      20.807400000000      15.605550000000
       235    1   1.000000       26.009250000000      20.807400000000      26.009250000000
       236    1   1.000000       26.009250000000      20.807400000000      36.412950000000
       237    1   1.000000       26.009250000000      31.211100000000       5.201850000000
       238    1   1.000000       26.009250000000      31.211100000000      15.605550000000
       239    1   1.000000       26.009250000000      31.211100000000      26.009250000000
       240    1   1.000000       26.009250000000      31.211100000000      36.412950000000
       241    1   1.000000       36.412950000000       0.000000000000       5.201850000000
       242    1   1.000000       36.412950000000       0.000000000000      15.605550000000
       243    1   1.000000       36.412950000000       0.000000000000      26.009250000000
       244    1   1.000000       36.412950000000       0.000000000000      36.412950000000
       245    1   1.000000       36.412950000000      10.403700000000       5.201850000000
       246    1   1.000000       36.412950000000      10.403700000000      15.605550000000
       247    1   1.000000       36.412950000000      10.403700000000      26.009250000000
       248    1   1.000000       36.412950000000      10.403700000000      36.412950000000
       249    1   1.000000       36.412950000000      20.807400000000       5.201850000000
       250    1   1.000000       36.412950000000      20.807400000000      15.605550000000
       251    1   1.000000       36.412950000000      20.807400000000      26.009250000000
       252    1   1.000000       36.412950000000      20.807400000000      36.412950000000
       253    1   1.000000       36.412950000000      31.211100000000       5.201850000000
       254    1   1.000000       36.412950000000      31.211100000000      15.605550000000
       255    1   1.000000       36.412950000000      31.211100000000      26.009250000000
       256    1   1.000000       36.412950000000      31.211100000000      36.412950000000
       257    1   1.000000        5.201850000000       5.201850000000      41.614800000000
       258    1   1.000000        5.201850000000       5.201850000000      10.403700000000
       259    1   1.000000        5.201850000000       5.201850000000      20.807400000000
       260    1   1.000000        5.201850000000       5.201850000000      31.211100000000
       261    1   1.000000        5.201850000000      15.605550000000      41.614800000000
       262    1   1.000000        5.201850000000      15.605550000000      10.403700000000
       263    1   1.000000        5.201850000000      15.605550000000      20.807400000000
       264    1   1.000000        5.201850000000      15.605550000000      31.211100000000
       265    1   1.000000        5.201850000000      26.009250000000      41.614800000000
       266    1   1.000000        5.201850000000      26.009250000000      10.403700000000
       267    1   1.000000        5.201850000000      26.009250000000      20.807400000000
       268    1   1.000000        5.201850000000      26.009250000000      31.211100000000
       269    1   1.000000        5.201850000000      36.412950000000      41.614800000000
       270    1   1.000000        5.201850000000      36.412950000000      10.403700000000
       271    1   1.000000        5.201850000000      36.412950000000      20.807400000000
       272    1   1.000000        5.201850000000      36.412950000000      31.211100000000
       273    1   1.000000       15.605550000000       5.201850000000       0.000000000000
       274    1   1.000000       15.605550000000       5.201850000000      10.403700000000
       275    1   1.000000       15.605550000000       5.201850000000      20.807400000000
       276    1   1.000000       15.605550000000       5.201850000000      31.211100000000
       277    1   1.000000       15.605550000000      15.605550000000      41.614800000000
       278    1   1.000000       15.605550000000      15.605550000000      10.403700000000
       279    1   1.000000       15.605550000000      15.605550000000      20.807400000000
       280    1   1.000000       15.605550000000      15.605550000000      31.211100000000
       281    1   1.000000       15.605550000000      26.009250000000      41.614800000000
       282    1   1.000000       15.605550000000      26.009250000000      10.403700000000
       283    1   1.000000       15.605550000000      26.009250000000      20.807400000000
       284    1   1.000000       15.605550000000      26.009250000000      31.211100000000
       285    1   1.000000       15.605550000000      36.412950000000      41.614800000000
       286    1   1.000000       15.605550000000      36.412950000000      10.403700000000
       287    1   1.000000       15.605550000000      36.412950000000      20.807400000000
       288    1   1.000000       15.605550000000      36.412950000000      31.211100000000
       289    1   1.000000       26.009250000000       5.201850000000       0.000000000000
       290    1   1.000000       26.009250000000       5.201850000000      10.403700000000
       291    1   1.000000       26.009250000000       5.201850000000      20.807400000000
       292    1   1.000000       26.009250000000       5.201850000000      31.211100000000
       293    1   1.000000       26.009250000000      15.605550000000       0.000000000000
       294    1   1.000000       26.009250000000      15.605550000000      10.403700000000
       295    1   1.000000       26.009250000000      15.605550000000      20.807400000000
       296    1   1.000000       26.009250000000      15.605550000000      31.211100000000
       297    1   1.000000       26.009250000000      26.009250000000      41.614800000000
       298    1   1.000000       26.009250000000      26.009250000000      10.403700000000
       299    1   1.000000       26.009250000000      26.009250000000      20.807400000000
       300    1   1.000000       26.009250000000      26.009250000000      31.211100000000
       301    1   1.000000       26.009250000000      36.412950000000      41.614800000000
       302    1   1.000000       26.009250000000      36.412950000000      10.403700000000
       303    1   1.000000       26.009250000000      36.412950000000      20.807400000000
       304    1   1.000000       26.009250000000      36.412950000000      31.211100000000
       305    1   1.000000       36.412950000000       5.201850000000       0.000000000000
       306    1   1.000000       36.412950000000       5.201850000000      10.403700000000
       307    1   1.000000       36.412950000000       5.201850000000      20.807400000000
       308    1   1.000000       36.412950000000       5.201850000000      31.211100000000
       309    1   1.000000       36.412950000000      15.605550000000       0.000000000000
       310    1   1.000000       36.412950000000      15.605550000000      10.403700000000
       311    1   1.000000       36.412950000000      15.605550000000      20.807400000000
       312    1   1.000000       36.412950000000      15.605550000000      31.211100000000
       313    1   1.000000       36.412950000000      26.009250000000      41.614800000000
       314    1   1.000000       36.412950000000      26.009250000000      10.403700000000
       315    1   1.000000       36.412950000000      26.009250000000      20.807400000000
       316    1   1.000000       36.412950000000      26.009250000000      31.211100000000
       317    1   1.000000       36.412950000000      36.412950000000      41.614800000000
       318    1   1.000000       36.412950000000      36.412950000000      10.403700000000
       319    1   1.000000       36.412950000000      36.412950000000      20.807400000000
       320    1   1.000000       36.412950000000      36.412950000000      31.211100000000
       321    1   1.000000        1.414903200000       9.103237500000       3.901387500000
       322    1   1.000000        1.414903200000       9.103237500000      14.305087500000
       323    1   1.000000        1.414903200000       9.103237500000      24.708787500000
       324    1   1.000000        1.414903200000       9.103237500000      35.112487500000
       325    1   1.000000        1.414903200000      19.506937500000       3.901387500000