 # Na64 Cl64
 
         128  atoms
           2  atom types
 
      0.000000000000      16.098541680000  xlo xhi
      0.000000000000      13.941746058763  ylo yhi
      0.000000000000      13.144404239642  zlo zhi
