LAMMPS (7 Aug 2019)
  using 1 OpenMP thread(s) per MPI task

# Input written to comply with LAMMPS 2017-08-11 00:00:00

# Atomic Configuration
units           metal
boundary        p p p
box             tilt large
atom_style      charge
read_data       triclinic_3x3x3.lmp
  orthogonal box = (0 0 0) to (31.2111 31.2111 31.2111)
  4 by 4 by 5 MPI processor grid
  reading atoms ...
  1458 atoms
  read_data CPU = 0.016171 secs
group           lithium type 1
459 atoms in group lithium
group           scandium type 2
135 atoms in group scandium
group           chloride type 3
864 atoms in group chloride
variable        T1 equal 300
variable        dt equal 0.001

# Potential Setup
pair_style      buck/coul/long 12.0
pair_coeff      * * 0.0 1.0 0.0
pair_coeff      1 1    360.530000  0.161000   0.000000 # Li Li
pair_coeff      1 3    421.040000  0.344000   0.000000 # Li Cl
pair_coeff      3 3   1227.200000  0.321000  14.530000 # Cl Cl
pair_coeff      2 3  12131.350000  0.250700   0.000000 # Sc Cl

kspace_style    pppm 1e-05

# General Setup
timestep        ${dt}
timestep        0.001

# Thermodynamic Information Output
thermo_style    custom step temp epair emol etotal press lx ly lz fmax cpu cpuremain
thermo          1000

# Intial Atom Velocity
velocity        all create ${T1} 444764 dist gaussian rot yes
velocity        all create 300 444764 dist gaussian rot yes

# Stage 0: npt_equilibriation
restart         0
fix             int all npt aniso 1.0 1.0 $(1000*dt) temp ${T1} ${T1} $(100*dt)
fix             int all npt aniso 1.0 1.0 1 temp ${T1} ${T1} $(100*dt)
fix             int all npt aniso 1.0 1.0 1 temp 300 ${T1} $(100*dt)
fix             int all npt aniso 1.0 1.0 1 temp 300 300 $(100*dt)
fix             int all npt aniso 1.0 1.0 1 temp 300 300 0.10000000000000000555
run             50000
PPPM initialization ...
  using 12-bit tables for long-range coulomb (../kspace.cpp:323)
  G vector (1/distance) = 0.270832
  grid = 30 30 30
  stencil order = 5
  estimated absolute RMS force accuracy = 0.000115694
  estimated relative force accuracy = 8.03452e-06
  using double precision MKL FFT
  3d grid and FFT values/proc = 2548 384
Neighbor list info ...
  update every 1 steps, delay 10 steps, check yes
  max neighbors/atom: 2000, page size: 100000
  master list distance cutoff = 14
  ghost atom cutoff = 14
  binsize = 7, bins = 5 5 5
  1 neighbor lists, perpetual/occasional/extra = 1 0 0
  (1) pair buck/coul/long, perpetual
      attributes: half, newton on
      pair build: half/bin/atomonly/newton
      stencil: half/bin/3d/newton
      bin: standard
Per MPI rank memory allocation (min/avg/max) = 3.416 | 3.494 | 3.679 Mbytes
Step Temp E_pair E_mol TotEng Press Lx Ly Lz Fmax CPU CPULeft 
       0          300   -8863.2033            0   -8806.7037   -7699.5267      31.2111      31.2111      31.2111    5.7882127            0            0 
    1000    293.46884   -10160.739            0   -10105.469   -394.77367    31.473617    34.052411    33.936308    2.4290796    1.2818749    62.811917 
    2000    300.59073    -10173.48            0   -10116.869    355.61773    31.537098    33.952324    33.764874    2.1329602     2.595608    62.294615 
    3000    294.19818   -10178.909            0   -10123.502   -804.52624    31.458904     33.66807    34.040466    2.0724473     3.858655    60.452276 
    4000    315.04447   -10186.904            0   -10127.571    476.32038    31.704175    33.344016    33.936054    2.4774315     5.183784    59.613527 
    5000    296.30367   -10189.917            0   -10134.114   -246.75106    31.507028    33.432285    34.051776    2.6555978    6.4853809    58.368437 
    6000    303.31633    -10190.62            0   -10133.496   -679.39285    31.676608    33.542758    33.764745     2.205073    7.7834618     57.07872 
    7000     300.1963   -10195.238            0   -10138.702   -342.11023    31.830517    33.265881    33.787583    2.2291323     9.115046    55.992426 
    8000     298.2342   -10197.218            0   -10141.051   -499.91683    31.886719    33.370457    33.850254    2.2835873    10.434578    54.781539 
    9000    299.82089   -10194.774            0   -10138.308    -712.2504    32.021058    33.213915    33.840089    2.3054463    11.749809    53.526912 
   10000    300.64163   -10199.242            0   -10142.621   -239.46853    32.070048    33.214668    33.750972    2.6277083    13.008335    52.033343 
   11000    296.55404   -10196.529            0   -10140.678    616.33948    31.926055    33.277021    33.730486    3.1683646    14.295521    50.684123 
   12000    300.31132   -10196.087            0   -10139.529    747.57751    32.136279    33.133609    33.834684    1.9961452    15.616519    49.452313 
   13000    299.66333   -10198.716            0    -10142.28   -174.24111    32.116539     33.31834    33.670623    1.9823706    16.935666    48.201513 
   14000    300.20024   -10196.847            0    -10140.31   -780.34784     32.09674    33.264724    33.814397    2.6822011    18.181345     46.75203 
   15000    292.39786   -10199.586            0   -10144.518    176.54006    31.914238    33.419831    33.744161    2.2077224    19.518404    45.542945 
   16000    304.21244   -10197.547            0   -10140.254   -233.85045     31.91341    33.279213    33.948582    2.9821904    20.810813     44.22298 
   17000    300.79818   -10199.257            0   -10142.607    1103.9251    31.892626    33.262033    33.755538    4.3558979    22.087648    42.876024 
   18000    306.24729   -10197.724            0   -10140.048    1057.3257    31.977617    33.300403    33.872016    2.2857905    23.418607    41.633081 
   19000    307.55581    -10199.43            0   -10141.508   -70.558696    31.862019    33.337037    33.815985    2.9263096    24.788608    40.444571 
   20000    289.41253   -10197.524            0   -10143.018    133.00767    32.150658    33.242716    33.594264    2.5489763    26.218516    39.327775 
   21000    307.58866   -10200.005            0   -10142.077    100.19169    31.982796    33.397515    33.684979    2.1028418    27.687287    38.234826 
   22000     299.7908   -10200.068            0   -10143.608    186.95095    32.212552    33.289629    33.621335    2.5071514    29.117845    37.059077 
   23000    305.81808   -10199.081            0   -10141.486    456.00245    32.065001    33.115104    33.821438    2.5964748    30.524815    35.833479 
   24000    299.83769    -10201.35            0   -10144.881    442.99455    32.077016    33.301083     33.60635    2.1607385    31.833053    34.485808 
   25000    297.99334   -10199.871            0    -10143.75   -748.84914    32.248444       33.382    33.741478    2.2862478    33.119711    33.119712 
   26000    299.05085   -10203.317            0   -10146.996   -613.43118    32.145983    33.351113    33.641609    2.4671645    34.414283    31.767031 
   27000    306.76766    -10201.83            0   -10144.055   -281.11632    32.200677    33.347015    33.528965    2.2748311    35.722408      30.4302 
   28000    300.49741   -10201.935            0   -10145.342   -630.78715     32.24077    33.366819    33.594451    2.6284193    36.992013    29.065154 
   29000    303.51828   -10200.748            0   -10143.585   -1386.3496    32.220486    33.393191    33.635683    2.2498377    38.277741    27.718366 
   30000    309.52274   -10202.378            0   -10144.085    812.34067    32.166134    33.281795    33.692015    2.4010733    39.572534     26.38169 
   31000     297.1479   -10201.668            0   -10145.705    211.39977    32.076878    33.481969    33.647027    2.3260954    40.869528    25.049066 
   32000    297.90779   -10201.342            0   -10145.236   -1009.4273    32.106278    33.522266    33.623339    2.7585311    42.146592    23.707458 
   33000     298.9849   -10203.161            0   -10146.853   -1089.0459    32.117423    33.547802    33.524414    2.5457498    43.449794    22.383228 
   34000    308.88121   -10198.642            0   -10140.469    518.56175    32.071397    33.372981    33.644514    3.0171968    44.766386    21.066535 
   35000    306.31838   -10203.002            0   -10145.313    854.02023    31.850191    33.398073    33.665541    2.8258043    46.020589     19.72311 
   36000    307.09936   -10197.588            0   -10139.751    84.388814    31.951569    33.396454    33.625571    2.2996824    47.317382    18.401204 
   37000    298.71513   -10203.862            0   -10147.604    587.22346    31.851643    33.261937    33.654161    2.3770182    48.616568    17.081497 
   38000    303.90572   -10200.584            0   -10143.348    433.43727    31.866724    33.289352    33.552192    2.4435012    49.956278    15.775667 
   39000    295.71419   -10201.797            0   -10146.104    100.61322      31.8391     33.12824    33.753672    2.2621466    51.234826    14.450849 
   40000    291.51433   -10202.484            0   -10147.583   -734.61454    32.041477    33.189954    33.501516    2.2879802    52.505087    13.126272 
   41000    297.17051   -10199.317            0    -10143.35    848.70478    31.791697    33.286349    33.615397    2.3757914    53.815348    11.813125 
   42000    307.36936   -10203.882            0   -10145.994   -1256.1973    32.067391    33.269412    33.603135    2.6511032    55.105503    10.496286 
   43000    295.66423   -10203.823            0    -10148.14   -279.18634    31.802765    33.268213    33.686097    2.9579136    56.362179    9.1752386 
   44000    304.13779   -10199.628            0   -10142.349    417.96757    31.859455    33.270177    33.570169    2.5578363    57.720152    7.8709299 
   45000    294.08746   -10203.254            0   -10147.868   -1263.9019    31.786086    33.425029    33.570199     2.312949    58.979171    6.5532413 
   46000    295.71431   -10204.847            0   -10149.155    278.99662    31.926316    33.121251    33.716488     2.243091    60.237476    5.2380415 
   47000    292.51394   -10202.218            0   -10147.129   -6.0685101    31.715807    33.300962    33.567889    2.2913045      61.4946    3.9251873 
   48000    294.51977   -10204.752            0   -10149.285   -1766.1973    31.892033     33.22584     33.74495    2.3327499    62.803798     2.616825 
   49000    308.51357   -10204.341            0   -10146.238    203.08953    31.750288    33.402726    33.582845    2.0886355    64.096351    1.3080888 
   50000    292.06752   -10207.128            0   -10152.122    229.63894    31.705067    33.393868    33.552542    2.5134114    65.470978            0 
Loop time of 65.471 on 80 procs for 50000 steps with 1458 atoms

Performance: 65.983 ns/day, 0.364 hours/ns, 763.697 timesteps/s
99.4% CPU use with 80 MPI tasks x 1 OpenMP threads

MPI task timing breakdown:
Section |  min time  |  avg time  |  max time  |%varavg| %total
---------------------------------------------------------------
Pair    | 4.6454     | 6.1977     | 7.2663     |  24.1 |  9.47
Kspace  | 34.368     | 35.489     | 37.059     |  10.5 | 54.21
Neigh   | 0.093194   | 0.11694    | 0.13381    |   2.7 |  0.18
Comm    | 19.043     | 19.264     | 19.485     |   2.6 | 29.42
Output  | 0.0025377  | 0.0025847  | 0.0037963  |   0.3 |  0.00
Modify  | 3.1901     | 3.7617     | 4.0214     |  14.8 |  5.75
Other   |            | 0.6398     |            |       |  0.98

Nlocal:    18.225 ave 23 max 12 min
Histogram: 2 3 4 13 6 11 15 14 7 5
Nghost:    1843.6 ave 1902 max 1800 min
Histogram: 3 12 13 8 14 10 13 2 4 1
Neighs:    4297.98 ave 5725 max 2888 min
Histogram: 4 4 5 14 14 13 13 6 3 4

Total # of neighbors = 343838
Ave neighs/atom = 235.829
Neighbor list builds = 906
Dangerous builds = 3

# Stage 1: nvt_equilibriation
unfix           int
restart         0
fix             int all nvt temp ${T1} ${T1} $(100*dt)
fix             int all nvt temp 300 ${T1} $(100*dt)
fix             int all nvt temp 300 300 $(100*dt)
fix             int all nvt temp 300 300 0.10000000000000000555
run             6000000
PPPM initialization ...
  using 12-bit tables for long-range coulomb (../kspace.cpp:323)
  G vector (1/distance) = 0.267077
  grid = 30 30 30
  stencil order = 5
  estimated absolute RMS force accuracy = 0.00013865
  estimated relative force accuracy = 9.62868e-06
  using double precision MKL FFT
  3d grid and FFT values/proc = 2548 384
Per MPI rank memory allocation (min/avg/max) = 3.418 | 3.653 | 3.68 Mbytes
Step Temp E_pair E_mol TotEng Press Lx Ly Lz Fmax CPU CPULeft 
   50000    292.06752   -10207.124            0   -10152.118    230.96458    31.705067    33.393868    33.552542    2.5133915            0            0 
   51000     299.6301   -10206.035            0   -10149.605   -290.58498    31.705067    33.393868    33.552542    1.9676415    1.2816811    7688.8047 
   52000     297.6211   -10206.203            0   -10150.152   -23.400756    31.705067    33.393868    33.552542    2.3504031     2.608005      7821.41 
   53000    300.44912   -10206.296            0   -10149.711   -39.125573    31.705067    33.393868    33.552542    2.3865551    3.9406581    7877.3755 
   54000    292.58656   -10203.157            0   -10148.054    -824.7987    31.705067    33.393868    33.552542    2.7446508    5.2042649    7801.1948 
   55000    298.41742   -10205.529            0   -10149.328    740.20748    31.705067    33.393868    33.552542    2.1882879    6.3733759    7641.6791 
   56000    298.87817   -10205.673            0   -10149.385    186.94334    31.705067    33.393868    33.552542    3.1221383    7.5217791    7514.2573 
   57000    311.80049   -10205.038            0   -10146.316    500.14438    31.705067    33.393868    33.552542    2.1919041    8.7396049    7482.3504 
   58000     317.3327    -10205.58            0   -10145.816   -627.41101    31.705067    33.393868    33.552542    2.0165058     9.966224    7464.7025 
   59000    298.39879   -10203.212            0   -10147.014   -370.00423    31.705067    33.393868    33.552542    2.8870341    11.121414    7403.1552 
   60000    292.02484   -10203.762            0   -10148.765   -159.85075    31.705067    33.393868    33.552542    2.1776604      12.3074    7372.1332 
   61000    305.72232   -10205.741            0   -10148.164    1580.4506    31.705067    33.393868    33.552542    2.2617222    13.482654    7340.6928 
   62000    293.74335   -10205.536            0   -10150.215    286.89287    31.705067    33.393868    33.552542    2.6624771    14.651632    7311.1644 
   63000    299.90968   -10203.894            0   -10147.412   -217.21072    31.705067    33.393868    33.552542    2.1878463     15.86394     7305.955 
   64000    295.61734   -10206.306            0   -10150.631   -60.319215    31.705067    33.393868    33.552542    2.4185104    17.083471    7304.4045 
   65000    296.12597   -10203.309            0   -10147.539    110.35349    31.705067    33.393868    33.552542    2.3135114    18.285628     7295.966 
   66000    301.36754   -10206.357            0     -10149.6   -253.36795    31.705067    33.393868    33.552542    2.0258698    19.478312    7284.8891 
   67000    296.35362   -10204.626            0   -10148.813   -831.94541    31.705067    33.393868    33.552542    2.8108856    20.667423    7273.7175 
   68000    293.41409   -10206.791            0   -10151.532    1307.2493    31.705067    33.393868    33.552542     2.083502    21.840911     7258.463 
   69000    306.63012   -10205.177            0   -10147.429    112.41591    31.705067    33.393868    33.552542    2.5335246    23.033288    7250.6369 
   70000    295.80724   -10206.839            0   -10151.129   -53.903282    31.705067    33.393868    33.552542    2.1435052    24.228664    7244.3708 
   71000    301.95069   -10202.819            0   -10145.952    584.01941    31.705067    33.393868    33.552542    2.4483051    25.447294    7245.2084 
   72000    294.07639   -10206.851            0   -10151.467   -192.37605    31.705067    33.393868    33.552542    2.2836252     26.68146    7250.0807 
   73000    308.73586   -10204.342            0   -10146.197    368.30459    31.705067    33.393868    33.552542    2.8055349     27.86207    7240.5043 
   74000    299.84521   -10207.069            0   -10150.599    1028.6086    31.705067    33.393868    33.552542    2.2381723    29.084696    7242.0896 
   75000    298.35466   -10204.211            0   -10148.021    1038.4901    31.705067    33.393868    33.552542    2.5333908    30.227797    7224.4437 
   76000    284.28565   -10206.924            0   -10153.384    513.64288    31.705067    33.393868    33.552542     2.392125    31.502784    7238.3707 
   77000    301.52189   -10205.731            0   -10148.945   -356.35657    31.705067    33.393868    33.552542     1.856202    32.694508    7232.7519 
   78000    299.11436   -10206.498            0   -10150.166   -987.08804    31.705067    33.393868    33.552542    2.1772107    33.867171     7223.384 
   79000    308.35157   -10205.364            0   -10147.291   -465.40575    31.705067    33.393868    33.552542    3.1034907     35.06744    7220.2652 
   80000     301.5448   -10206.701            0   -10149.911    105.59376    31.705067    33.393868    33.552542     2.267944    36.306824    7225.0582 
   81000    283.86865   -10206.404            0   -10152.942   -417.74927    31.705067    33.393868    33.552542    2.1111062    37.492893    7219.1963 
   82000     301.6295   -10205.322            0   -10148.516   -1072.6804    31.705067    33.393868    33.552542    2.0816726    38.731866    7223.4934 
   83000     297.3834   -10207.202            0   -10151.195    95.381323    31.705067    33.393868    33.552542    2.3280963     40.00855    7234.2734 
   84000    296.68167    -10204.96            0   -10149.085    21.364999    31.705067    33.393868    33.552542    2.0185913    41.334943    7253.0669 
   85000    305.26208   -10204.823            0   -10147.332   -450.57922    31.705067    33.393868    33.552542    2.7590233     42.63491     7266.207 
   86000    302.38879     -10207.2            0    -10150.25   -1213.8025    31.705067    33.393868    33.552542    2.4734886    43.941892    7279.7069 
   87000     306.4426   -10205.121            0   -10147.408   -542.23776    31.705067    33.393868    33.552542    2.5680762    45.172899    7280.1622 
   88000    290.31647   -10207.625            0   -10152.949   -1865.1969    31.705067    33.393868    33.552542    2.3963577     46.38417    7277.4323 
   89000    300.42434   -10204.186            0   -10147.607   -518.98882    31.705067    33.393868    33.552542      2.17533    47.573767    7271.4674 
   90000    301.84586   -10203.805            0   -10146.958   -816.69168    31.705067    33.393868    33.552542    2.1253008    48.741904    7262.5438 
   91000    298.62097   -10204.766            0   -10148.526   -868.58388    31.705067    33.393868    33.552542    2.1991697    49.921449    7255.6566 
   92000    295.90554   -10205.155            0   -10149.426   -1782.8971    31.705067    33.393868    33.552542    2.6924161    51.131256     7253.334 
   93000    296.11818   -10206.277            0   -10150.508   -581.51214    31.705067    33.393868    33.552542    2.4519741    52.298556    7245.1745 
   94000    307.16324   -10205.511            0   -10147.662   -147.83326    31.705067    33.393868    33.552542    2.3819381    53.519722    7244.6243 
   95000    295.28483   -10208.877            0   -10153.265   -659.47578    31.705067    33.393868    33.552542    2.4213081    54.709085    7239.8357 
   96000    293.92561   -10204.346            0    -10148.99   -907.26608    31.705067    33.393868    33.552542    2.2744244    55.916323    7237.5172 
   97000    292.34998   -10206.472            0   -10151.413   -291.31153    31.705067    33.393868    33.552542    2.1781432    57.135172    7236.7167 
   98000    308.63663   -10205.949            0   -10147.823   -665.77128    31.705067    33.393868    33.552542     2.667749    58.347743    7235.1203 
   99000    304.05186   -10206.549            0   -10149.286   -181.19919    31.705067    33.393868    33.552542    2.5908815    59.581757    7236.1437 
  100000    299.36391   -10204.487            0   -10148.107   -28.875228    31.705067    33.393868    33.552542    2.4465761    60.822699    7237.9012 
  101000      289.799   -10207.885            0   -10153.307     876.6775    31.705067    33.393868    33.552542    2.2101202    62.010544    7233.3477 
  102000    303.72199   -10205.256            0   -10148.056   -367.99205    31.705067    33.393868    33.552542    2.8778661    63.240046    7233.6885 
  103000    290.28965   -10209.713            0   -10155.042    541.98338    31.705067    33.393868    33.552542    2.1501737    64.433817    7229.9607 
  104000    294.12523   -10205.269            0   -10149.875   -464.52258    31.705067    33.393868    33.552542    3.3055121    65.595167    7222.7569 
  105000    298.83665   -10205.573            0   -10149.293   -852.11631    31.705067    33.393868    33.552542    2.2771489    66.765212    7216.7125 
  106000    307.69045   -10206.044            0   -10148.096   -748.45344    31.705067    33.393868    33.552542     2.747633    68.007997    7218.5632 
  107000    308.61667   -10204.893            0    -10146.77   -332.05231    31.705067    33.393868    33.552542    2.3350887    69.270429    7222.3538 
  108000    307.80379    -10205.83            0    -10147.86   -214.27251    31.705067    33.393868    33.552542    2.1436972    70.469427    7219.4714 
  109000    308.05063   -10207.377            0   -10149.361   -175.24428    31.705067    33.393868    33.552542    2.4780163    71.650643    7214.8555 
  110000    303.50288   -10205.821            0   -10148.662   -374.17891    31.705067    33.393868    33.552542     2.460231    72.822328    7209.4106 
  111000    295.22835   -10208.413            0   -10152.812    367.98812    31.705067    33.393868    33.552542    1.8794629    74.014031    7206.0547 
  112000    304.02494   -10207.059            0   -10149.801    -584.2022    31.705067    33.393868    33.552542    2.2867273    75.224983    7204.6122 
  113000    287.01799   -10205.881            0   -10151.827   -1848.1451    31.705067    33.393868    33.552542    2.7111416     76.42856     7202.482 
  114000    301.55441   -10205.438            0   -10148.646   -1216.0802    31.705067    33.393868    33.552542    2.5315189    77.706559    7207.2834 
  115000    280.85178    -10205.54            0   -10152.646    260.41031    31.705067    33.393868    33.552542    2.8708011    78.980153    7211.4956 
  116000    304.65985    -10204.91            0   -10147.533   -113.09627    31.705067    33.393868    33.552542    2.3622929    80.299858    7219.6873 
  117000    297.20015   -10207.379            0   -10151.407   -529.18093    31.705067    33.393868    33.552542    2.1474326    81.597346    7225.6278 
  118000    295.69446   -10207.288            0   -10151.599   -578.34017    31.705067    33.393868    33.552542    2.1059839    82.904472    7232.1962 
  119000    291.89426    -10210.61            0   -10155.637    83.459627    31.705067    33.393868    33.552542    2.1043777    84.150615    7233.2942 
  120000    298.40394   -10205.954            0   -10149.755   -335.63341    31.705067    33.393868    33.552542    2.6882105    85.371984    7232.2267 
  121000     301.8998   -10207.886            0   -10151.029   -253.75848    31.705067    33.393868    33.552542    2.4009221    86.548314    7227.3938 
  122000    300.84608   -10208.957            0   -10152.298   -1266.3722    31.705067    33.393868    33.552542    2.6496651    87.755144    7225.1736 
  123000    290.32965   -10207.409            0    -10152.73    -262.8653    31.705067    33.393868    33.552542    2.4337118     88.93946    7221.1532 
  124000    298.34321   -10207.101            0   -10150.914   -698.19524    31.705067    33.393868    33.552542    2.3358886    90.155407    7219.7425 
  125000    302.45363   -10206.012            0    -10149.05   -592.05466    31.705067    33.393868    33.552542    2.2115552      91.3604    7217.4717 
  126000    296.94265   -10206.961            0   -10151.037   -846.61089    31.705067    33.393868    33.552542    2.5303811    92.568672    7215.4845 
  127000     298.6073   -10208.026            0   -10151.788     -1217.55    31.705067    33.393868    33.552542     2.095422    93.755639    7211.8786 
  128000     301.5477   -10207.007            0   -10150.215   -396.70261    31.705067    33.393868    33.552542    2.4827071    94.919784    7206.6021 
  129000     293.6091   -10208.684            0   -10153.388   -1060.2249    31.705067    33.393868    33.552542    2.3331681    96.106951    7203.1552 
  130000    303.26298   -10208.263            0   -10151.149   -1014.1148    31.705067    33.393868    33.552542    2.4230348     97.31771    7201.5106 
  131000      297.629   -10206.373            0    -10150.32    202.30924    31.705067    33.393868    33.552542    2.6456022      98.5315    7200.0982 
  132000    298.98959   -10208.459            0    -10152.15   -615.36541    31.705067    33.393868    33.552542    2.0879901    99.769808    7200.4601 
  133000    308.20118   -10206.779            0   -10148.735    363.03115    31.705067    33.393868    33.552542    2.0037669    100.97569    7198.4719 
  134000    301.40058   -10208.671            0   -10151.908   -169.95161    31.705067    33.393868    33.552542    2.2856372    102.14549     7193.961 
  135000    300.26719   -10208.154            0   -10151.604    68.216783    31.705067    33.393868    33.552542    2.6870236    103.34401    7191.5276 
  136000    298.46914   -10209.284            0   -10153.073   -247.06283    31.705067    33.393868    33.552542    2.3654437    104.58559    7192.0837 
  137000    301.81016   -10211.707            0   -10154.867   -102.72066    31.705067    33.393868    33.552542    1.8995046    105.80383     7191.012 
  138000      297.983   -10207.705            0   -10151.585   -136.85358    31.705067    33.393868    33.552542    2.2379542    107.00978    7189.1118 
  139000    288.45446   -10210.702            0   -10156.377   -626.47308    31.705067    33.393868    33.552542    2.3060855    108.17538    7184.5472 
  140000    293.36189   -10208.898            0   -10153.648   -355.17602    31.705067    33.393868    33.552542    2.0361256    109.37242    7182.1225 
  141000    298.91884   -10208.541            0   -10152.245   -452.98974    31.705067    33.393868    33.552542    2.4550581    110.58856    7180.9647 
  142000     298.8175   -10208.791            0   -10152.514   -482.93793    31.705067    33.393868    33.552542    2.3693117    111.77588    7177.9558 
  143000    295.20556   -10209.184            0   -10153.588   -384.03033    31.705067    33.393868    33.552542    3.1511244    113.01708    7178.4076 
  144000    303.57636   -10209.182            0   -10152.009   -422.42495    31.705067    33.393868    33.552542    3.0296514    114.21426    7176.0574 
  145000    293.80053   -10209.603            0   -10154.271   -431.74877    31.705067    33.393868    33.552542      2.36262     115.4118    7173.7546 
  146000    295.81656   -10208.072            0    -10152.36   -853.97161    31.705067    33.393868    33.552542     2.310523    116.56822    7168.9457 
  147000    317.44302   -10210.591            0   -10150.806   -1041.9206    31.705067    33.393868    33.552542    2.4650954    117.73547    7164.8708 
  148000    298.27949   -10209.422            0   -10153.247   -86.664745    31.705067    33.393868    33.552542    2.4235684    118.95594     7164.061 
  149000    304.73978   -10209.053            0    -10151.66   -472.88411    31.705067    33.393868    33.552542    1.9577257    120.24237     7167.174 
  150000    288.04411   -10213.212            0   -10158.964    295.27886    31.705067    33.393868    33.552542    2.2467233    121.54431    7171.1144 
  151000    302.24617   -10207.968            0   -10151.046   -973.21483    31.705067    33.393868    33.552542    2.7096482    122.87044    7176.3635 
  152000    307.55842   -10209.161            0   -10151.238    -290.6574    31.705067    33.393868    33.552542    2.0920954    124.18779    7180.9765 
  153000    302.74095    -10210.08            0   -10153.064   -451.98302    31.705067    33.393868    33.552542    2.5097144    125.40518    7179.7511 
  154000    307.81654   -10210.048            0   -10152.077   -554.88258    31.705067    33.393868    33.552542    2.7029525    126.65074    7180.1226 
  155000    294.27393   -10209.382            0    -10153.96    -1051.304    31.705067    33.393868    33.552542    2.1341787    127.87242    7179.1232 
  156000    286.17323   -10210.722            0   -10156.827   -1146.8279    31.705067    33.393868    33.552542    2.4360643     129.0683    7176.6848 
  157000    288.71212   -10209.195            0   -10154.821   -813.40375    31.705067    33.393868    33.552542    2.2028035    130.26558    7174.3464 
  158000     299.0251    -10209.27            0   -10152.954     -1334.87    31.705067    33.393868    33.552542      2.46232    131.47247    7172.5536 
  159000    304.74218   -10209.342            0   -10151.949   -1189.5637    31.705067    33.393868    33.552542    2.3680364    132.68927    7171.3075 
  160000    303.06556   -10206.723            0   -10149.646   -757.34408    31.705067    33.393868    33.552542    2.8929014    133.94687    7172.2459 
  161000    298.04453   -10209.822            0   -10153.691   -87.736666    31.705067    33.393868    33.552542    2.4501441    135.12186    7168.7623 
  162000    295.12205   -10209.796            0   -10154.215   -137.95025    31.705067    33.393868    33.552542     2.283178    136.31692    7166.3752 
  163000    296.25922   -10211.017            0   -10155.222    314.06569    31.705067    33.393868    33.552542    2.2063691    137.51693    7164.2668 
  164000    296.83188   -10209.932            0   -10154.029    -107.5042    31.705067    33.393868    33.552542    2.1207203    138.69465    7161.0238 
  165000    311.59724   -10208.386            0   -10149.702   -266.39963    31.705067    33.393868    33.552542    2.3327099    139.89555    7159.0026 
  166000    297.46892   -10209.576            0   -10153.553   -107.05641    31.705067    33.393868    33.552542    2.7585883    141.11944    7158.1619 
  167000    309.14532   -10209.586            0   -10151.364    -425.1748    31.705067    33.393868    33.552542    2.5124737    142.33664    7156.9785 
  168000    305.18382   -10209.023            0   -10151.548   -340.69142    31.705067    33.393868    33.552542    2.7869139    143.55119     7155.662 
  169000    288.58603   -10208.966            0   -10154.616   -553.10508    31.705067    33.393868    33.552542    2.4261369    144.72317    7152.2433 
  170000    296.42919   -10210.726            0   -10154.899   -556.85235    31.705067    33.393868    33.552542    3.0171434    145.90633      7149.41 
  171000    306.55474   -10208.102            0   -10150.368   -624.08139    31.705067    33.393868    33.552542    2.3483593    147.11092    7147.6454 
  172000    288.32651   -10209.898            0   -10155.597   -1081.2629    31.705067    33.393868    33.552542    2.1201688    148.32595    7146.3928 
  173000    297.06196   -10211.347            0   -10155.401    520.77634    31.705067    33.393868    33.552542    2.1714177    149.54037    7145.1118 
  174000    301.61575   -10210.536            0   -10153.732   -768.79233    31.705067    33.393868    33.552542    2.0111106    150.74652    7143.4402 
  175000    283.96185    -10209.91            0   -10156.431      85.1732    31.705067    33.393868    33.552542    2.2149761    151.98011    7143.0653 
  176000    300.93666   -10208.986            0    -10152.31   -61.788364    31.705067    33.393868    33.552542    2.4947733    153.18528    7141.3519 
  177000    296.28834   -10207.261            0   -10151.461   -176.74273    31.705067    33.393868    33.552542    2.1106033    154.37829    7139.0843 
  178000    308.57111   -10208.031            0   -10149.917   -1092.4778    31.705067    33.393868    33.552542    2.5194089     155.5329    7135.0719 
  179000    297.13264   -10208.855            0   -10152.895    54.761741    31.705067    33.393868    33.552542     2.825378    156.74287    7133.6231 
  180000     287.2407   -10209.222            0   -10155.125   -392.39554    31.705067    33.393868    33.552542    2.9789831    157.97717    7133.2771 
  181000    295.53104   -10209.186            0   -10153.528   -1263.5784    31.705067    33.393868    33.552542    2.2813534    159.26127    7135.1479 
  182000    298.58717     -10207.6            0   -10151.367    152.56669    31.705067    33.393868    33.552542    2.3921814     160.5237    7136.0082 
  183000    291.17921   -10210.749            0   -10155.911   -248.60129    31.705067    33.393868    33.552542    2.3428693    161.84624    7139.4879 
  184000    303.13823   -10209.016            0   -10151.925    -557.0152    31.705067    33.393868    33.552542    2.0202495    163.16848     7142.883 
  185000    310.58726   -10206.751            0   -10148.257   -796.73222    31.705067    33.393868    33.552542    2.6697879    164.47068    7145.3375 
  186000    288.25764   -10207.989            0   -10153.701   -878.53995    31.705067    33.393868    33.552542    2.2020037    165.69603    7144.4232 
  187000     302.5761   -10210.679            0   -10153.694   -635.39858    31.705067    33.393868    33.552542    2.3776804    166.90107    7142.6348 
  188000    295.85745   -10207.609            0   -10151.889   -357.90518    31.705067    33.393868    33.552542    2.4656899    168.08456      7139.94 
  189000    303.97106   -10210.552            0   -10153.305   -967.37736    31.705067    33.393868    33.552542    2.3813945    169.31823    7139.3826 
  190000    308.44427   -10210.033            0   -10151.943   -247.35024    31.705067    33.393868    33.552542    2.7133121    170.51029    7137.0736 
  191000    313.66956   -10207.757            0   -10148.683    194.80451    31.705067    33.393868    33.552542    2.3115072    171.72341    7135.6557 
  192000    296.11797   -10210.176            0   -10154.408   -1002.4035    31.705067    33.393868    33.552542    2.9099615    172.90703    7133.0239 
  193000    303.64194   -10207.926            0    -10150.74    30.391947    31.705067    33.393868    33.552542    2.4962194    174.12916    7131.9895 
  194000    303.07573   -10208.637            0   -10151.558   -1612.2745    31.705067    33.393868    33.552542    2.1935945    175.37358    7131.8588 
  195000    286.58422   -10210.498            0   -10156.526    -575.8246    31.705067    33.393868    33.552542     2.248928    176.53474    7128.3511 
  196000    300.02577   -10208.976            0   -10152.471   -23.915956    31.705067    33.393868    33.552542    2.3253879    177.75131     7127.097 
  197000    299.07667   -10207.711            0   -10151.385   -459.53063    31.705067    33.393868    33.552542    2.1696309    178.95356    7125.2734 
  198000    308.66739   -10208.191            0   -10150.059    -695.9065    31.705067    33.393868    33.552542    2.1289957    180.12807    7122.3614 
  199000    289.17941   -10210.862            0     -10156.4   -409.66306    31.705067    33.393868    33.552542    3.0253768    181.30838    7119.7003 
  200000    305.19872   -10209.073            0   -10151.594   -1116.5265    31.705067    33.393868    33.552542    2.2818751    182.54958    7119.4338 
  201000    302.34847   -10208.202            0    -10151.26   -969.20621    31.705067    33.393868    33.552542    2.5947743    183.77164    7118.4128 
  202000    295.09957   -10207.521            0   -10151.945   -434.01092    31.705067    33.393868    33.552542    2.2293218    184.94164    7115.3865 
  203000    297.27818   -10207.375            0   -10151.388   -889.86652    31.705067    33.393868    33.552542    2.3357306    186.09211    7111.6378 
  204000     290.9769   -10208.717            0   -10153.917    246.94502    31.705067    33.393868    33.552542    2.5711883    187.26491    7108.7707 
  205000    292.87721   -10210.185            0   -10155.027    43.349073    31.705067    33.393868    33.552542    2.6031378    188.46235    7106.8547 
  206000    299.44241   -10208.338            0   -10151.943   -722.76063    31.705067    33.393868    33.552542    2.7302615     189.6573    7104.8542 
  207000     308.3995   -10208.703            0   -10150.621   -1290.7008    31.705067    33.393868    33.552542    3.1221417    190.85208     7102.858 
  208000    291.05572   -10210.005            0    -10155.19   -1762.3373    31.705067    33.393868    33.552542    2.4500399    192.06541    7101.5579 
  209000    304.62517   -10209.837            0   -10152.467   -1064.4731    31.705067    33.393868    33.552542    2.2806164    193.25938    7099.5475 
  210000    313.10128   -10209.367            0     -10150.4   -1151.1274    31.705067    33.393868    33.552542    2.1501957    194.46284    7097.8938 
  211000    277.72284   -10209.874            0   -10157.569   -1447.9157    31.705067    33.393868    33.552542    2.3498196    195.62357    7094.6958 
  212000    303.12288   -10209.229            0   -10152.142   -648.12084    31.705067    33.393868    33.552542    2.9198483    196.83945    7093.5106 
  213000    292.48686   -10210.854            0   -10155.769   -509.22543    31.705067    33.393868    33.552542    2.1136045     198.0359    7091.6293 
  214000    297.65134   -10209.099            0   -10153.042   -1195.3379    31.705067    33.393868    33.552542    2.6541694    199.31252    7092.6088 
  215000    294.75155   -10208.628            0   -10153.117   -706.36014    31.705067    33.393868    33.552542    2.5406305    200.60543    7094.1377 
  216000    295.22947   -10211.457            0   -10155.856    100.76511    31.705067    33.393868    33.552542    2.2011124    201.89696    7095.5835 
  217000    305.85673   -10208.076            0   -10150.473   -566.78198    31.705067    33.393868    33.552542     2.745795    203.18573    7096.9006 
  218000    298.60461   -10208.536            0   -10152.299   -1111.6564    31.705067    33.393868    33.552542    2.2690992    204.42435    7096.4452 
  219000    301.43827    -10209.38            0   -10152.609   -1294.8549    31.705067    33.393868    33.552542     2.760016    205.67823    7096.5074 
  220000    294.51232    -10209.55            0   -10154.084   -1375.3871    31.705067    33.393868    33.552542    2.1405015    206.98912    7098.5093 
  221000    303.62447   -10209.203            0   -10152.021   -754.90503    31.705067    33.393868    33.552542    1.9625651      208.194    7096.8586 
  222000    297.27031   -10208.799            0   -10152.814   -220.73154    31.705067    33.393868    33.552542    2.3710393    209.35635     7093.772 
  223000    295.56281   -10210.647            0   -10154.983   -746.31107    31.705067    33.393868    33.552542    2.1293922    210.55005    7091.7637 
  224000    298.94707   -10210.741            0    -10154.44   -1432.3501    31.705067    33.393868    33.552542    2.2234974    211.75511    7090.1452 
  225000    295.04983   -10209.642            0   -10154.074   -61.070027    31.705067    33.393868    33.552542    2.5654539    212.93965    7087.8483 
  226000    298.24429    -10206.36            0   -10150.191   -1234.4566    31.705067    33.393868    33.552542    2.4157819    214.13685    7085.9831 
  227000    302.69767   -10208.946            0   -10151.939   -1146.6912    31.705067    33.393868    33.552542     1.918841    215.32042    7083.6768 
  228000    301.25009   -10207.965            0    -10151.23    421.40914    31.705067    33.393868    33.552542    2.3706014    216.51468    7081.7331 
  229000    298.92121    -10211.34            0   -10155.044   -691.20577    31.705067    33.393868    33.552542      2.03583    217.72195    7080.2205 
  230000    306.00648   -10211.953            0   -10154.322    -1388.044    31.705067    33.393868    33.552542    2.5057215    218.90374    7077.8878 
  231000    297.56832   -10208.332            0    -10152.29   -909.33121    31.705067    33.393868    33.552542    2.3222683    220.13786    7077.2499 
  232000    302.54237   -10211.669            0   -10154.691   -1014.0719    31.705067    33.393868    33.552542     2.512753    221.37051    7076.5585 
  233000    303.05158   -10208.869            0   -10151.794   -1429.1038    31.705067    33.393868    33.552542    2.4043925    222.57148     7074.854 
  234000    300.73102   -10208.848            0    -10152.21   -726.81773    31.705067    33.393868    33.552542    3.0333064    223.78839    7073.6592 
  235000    288.10269    -10208.08            0   -10153.821   -887.37563    31.705067    33.393868    33.552542    2.3877841    224.96967    7071.3439 
  236000    293.17548   -10208.698            0   -10153.483   -1422.4596    31.705067    33.393868    33.552542    3.0703223     226.2107    7070.9087 
  237000    298.07589   -10210.448            0   -10154.311   -544.31987    31.705067    33.393868    33.552542    2.1980296    227.40305    7068.9515 
  238000    304.93094    -10207.59            0   -10150.162    237.23532    31.705067    33.393868    33.552542    2.2731948    228.60782    7067.3863 
  239000    296.01718   -10210.454            0   -10154.704    -989.4263    31.705067    33.393868    33.552542    2.9486365    229.83085    7066.3867 
  240000     312.2552   -10209.016            0   -10150.208   -814.32755    31.705067    33.393868    33.552542    2.8123187    231.03422    7064.7832 
  241000    291.25475   -10207.882            0   -10153.029    -650.6739    31.705067    33.393868    33.552542    2.4084085    232.19794    7061.9783 
  242000    291.03594   -10211.864            0   -10157.053   -934.00132    31.705067    33.393868    33.552542    2.0435915    233.38117    7059.7804 
  243000    297.89991   -10208.198            0   -10152.094   -207.79216    31.705067    33.393868    33.552542    2.7192293    234.55373     7057.272 
  244000    299.26429   -10207.823            0   -10151.462    836.29539    31.705067    33.393868    33.552542    2.4053613    235.75212    7055.5506 
  245000    299.79813    -10210.16            0   -10153.699   -679.05458    31.705067    33.393868    33.552542    2.1231022     236.9945    7055.1441 
  246000    294.60434   -10208.824            0    -10153.34   -144.39507    31.705067    33.393868    33.552542    2.2783075    238.22038    7054.2403 
  247000    293.30948    -10208.95            0    -10153.71   -631.72727    31.705067    33.393868    33.552542    2.1290015    239.49342    7054.7224 
  248000    294.05145    -10209.65            0    -10154.27   -378.49005    31.705067    33.393868    33.552542    2.0714058    240.77451    7055.4228 
  249000    309.55155   -10210.537            0   -10152.239   -1324.3223    31.705067    33.393868    33.552542     2.408804     242.1064     7057.584 
  250000    301.14936   -10210.713            0   -10153.997    102.39352    31.705067    33.393868    33.552542    2.1666105    243.36705    7057.6446 
  251000    305.20421   -10207.086            0   -10149.607   -931.62096    31.705067    33.393868    33.552542    2.5476598    244.62391    7057.5825 
  252000    296.80544    -10209.63            0   -10153.732   -578.88325    31.705067    33.393868    33.552542    2.5280934    245.84835    7056.5778 
  253000    293.02565   -10211.426            0    -10156.24   -445.88266    31.705067    33.393868    33.552542    2.0603993    247.06219    7055.2684 
  254000    304.79935   -10212.642            0   -10155.239   -1385.0868    31.705067    33.393868    33.552542    2.1313063    248.25976    7053.4979 
  255000    305.80776   -10212.079            0   -10154.486   -40.127862    31.705067    33.393868    33.552542    2.7986776    249.49851     7052.897 
  256000    294.80152   -10208.436            0   -10152.916   -603.50467    31.705067    33.393868    33.552542    2.4280859    250.68255    7050.7509 
  257000    304.60873   -10208.274            0   -10150.907    -590.2044    31.705067    33.393868    33.552542    2.4796896    251.85504    7048.2912 
  258000    305.55654   -10208.288            0   -10150.742   -343.54184    31.705067    33.393868    33.552542      2.03465    253.06672     7046.935 
  259000    301.23306   -10208.791            0   -10152.059   -1051.3859    31.705067    33.393868    33.552542    2.2526814     254.2983    7046.1313 
  260000    294.91024    -10210.45            0   -10154.909   -1353.9082    31.705067    33.393868    33.552542    2.2175811    255.52806    7045.2736 
  261000    303.31523   -10209.817            0   -10152.694    -46.64362    31.705067    33.393868    33.552542    2.4371707    256.74983    7044.1932 
  262000    293.25796   -10208.928            0   -10153.698   -787.16244    31.705067    33.393868    33.552542    2.9832765    257.97338    7043.1601 
  263000    307.63645   -10209.858            0    -10151.92    337.01296    31.705067    33.393868    33.552542     2.783811    259.21189    7042.5315 
  264000    295.66449   -10210.915            0   -10155.232   -1387.9518    31.705067    33.393868    33.552542    2.7809129    260.42698     7041.264 
  265000    300.93836   -10210.583            0   -10153.906    331.97928    31.705067    33.393868    33.552542    2.2223465    261.62728    7039.5991 
  266000    295.28988    -10210.72            0   -10155.108   -790.17322    31.705067    33.393868    33.552542    2.7357021    262.83765    7038.2082 
  267000    287.75598    -10208.04            0   -10153.847   -1072.1364    31.705067    33.393868    33.552542    2.2600965    264.10214    7038.2612 
  268000    295.98123   -10206.005            0   -10150.262   -943.80883    31.705067    33.393868    33.552542    2.7784778    265.29451    7036.3892 
  269000    298.40066   -10211.563            0   -10155.365   -546.35975    31.705067    33.393868    33.552542    3.0646345    266.52445    7035.5153 
  270000    293.97483   -10211.596            0   -10156.231    188.37021    31.705067    33.393868    33.552542    2.2924635    267.79559    7035.7206 
  271000    302.53456   -10210.088            0   -10153.111   -361.13841    31.705067    33.393868    33.552542    2.8269461    268.97529    7033.5212 
  272000    298.92969   -10209.731            0   -10153.433   -297.13987    31.705067    33.393868    33.552542    2.3138847    270.18832    7032.1987 
  273000    305.37233   -10211.339            0   -10153.827   -450.44496    31.705067    33.393868    33.552542    2.1658411    271.36965    7030.0558 
  274000    293.01108   -10209.213            0    -10154.03    468.75824    31.705067    33.393868    33.552542    2.1156197    272.51993    7027.1211 
  275000    290.27527   -10207.606            0   -10152.938   -1013.8621    31.705067    33.393868    33.552542    2.2060243    273.69243    7024.7723 
  276000    301.19716   -10210.108            0   -10153.383   -164.07745    31.705067    33.393868    33.552542    2.3773705    274.88041    7022.8296 
  277000    289.36939   -10211.431            0   -10156.934   -294.48225    31.705067    33.393868    33.552542    2.4136109    276.07038    7020.9441 
  278000    309.06889   -10210.467            0   -10152.259   -324.34114    31.705067    33.393868    33.552542    2.1629682    277.26135    7019.0899 
  279000    312.61593   -10209.242            0   -10150.366   -916.47783    31.705067    33.393868    33.552542    2.3660804    278.44073    7016.9495 
  280000    301.50744   -10211.873            0   -10155.089   -627.69024    31.705067    33.393868    33.552542    2.3552852    279.69806     7016.773 
  281000    302.42833   -10208.619            0   -10151.662   -803.26085    31.705067    33.393868    33.552542    2.2588867    280.92894    7015.9265 
  282000    303.21316   -10211.558            0   -10154.453   -83.004636    31.705067    33.393868    33.552542    2.3041862    282.20142    7016.1113 
  283000    289.21623   -10211.031            0   -10156.562   -1556.8776    31.705067    33.393868    33.552542    3.0042066    283.52286    7017.4951 
  284000    306.47623   -10209.385            0   -10151.666   -567.70415    31.705067    33.393868    33.552542     2.158601    284.80914    7017.9894 
  285000    305.22759   -10210.688            0   -10153.204     -219.191    31.705067    33.393868    33.552542    2.3349419    286.03306    7016.9388 
  286000    309.78118   -10210.345            0   -10152.003   -400.96206    31.705067    33.393868    33.552542    2.8118512    287.23479    7015.3446 
  287000    300.28842   -10207.845            0   -10151.291   -1013.7723    31.705067    33.393868    33.552542    2.9186002    288.40457    7012.9771 
  288000    297.76819   -10209.122            0   -10153.042   -963.84707    31.705067    33.393868    33.552542    2.3540733    289.61682    7011.6477 
  289000    299.44481   -10206.615            0    -10150.22   -407.15766    31.705067    33.393868    33.552542    3.0615313    290.79628    7009.5287 
  290000     302.6727   -10209.996            0   -10152.993   -633.16031    31.705067    33.393868    33.552542    2.1612832    291.97377    7007.3705 
  291000    309.11627   -10209.291            0   -10151.075   -641.72987    31.705067    33.393868    33.552542     2.393047    293.18568     7006.043 
  292000    302.82973   -10208.018            0   -10150.985   -857.27047    31.705067    33.393868    33.552542    2.5554586    294.38506    7004.4182 
  293000    289.64552   -10209.951            0   -10155.401   -1243.7673    31.705067    33.393868    33.552542    2.6790957    295.56773     7002.401 
  294000    294.76895   -10207.616            0   -10152.101    188.02115    31.705067    33.393868    33.552542    2.5857616    296.73784    7000.0944 
  295000    296.49863   -10206.806            0   -10150.965   -946.90882    31.705067    33.393868    33.552542    2.3015601    297.93909    6998.5285 
  296000    300.52493    -10208.56            0   -10151.962    -1168.373    31.705067    33.393868    33.552542     1.934898    299.18249    6997.9513 
  297000    294.63914   -10209.119            0   -10153.629   -973.05262    31.705067    33.393868    33.552542    2.3300949    300.33162    6995.1734 
  298000    314.33911   -10208.148            0   -10148.948   -1733.3095    31.705067    33.393868    33.552542    2.1090251    301.52967    6993.5431 
  299000    292.48165   -10207.854            0    -10152.77   -1344.6524    31.705067    33.393868    33.552542    2.3357704    302.78283     6993.189 
  300000    296.63928   -10208.133            0   -10152.266   -644.96933    31.705067    33.393868    33.552542    2.3222803    304.01514    6992.3482 
  301000    295.98023   -10209.691            0   -10153.948   -1989.8963    31.705067    33.393868    33.552542    2.2649691    305.19763    6990.3632 
  302000    310.19525   -10210.186            0   -10151.767   -428.32696    31.705067    33.393868    33.552542    2.0411178    306.45756    6990.1509 
  303000    287.74325   -10209.113            0   -10154.922   -1212.3574    31.705067    33.393868    33.552542    2.3436441    307.64947    6988.3855 
  304000    300.48987   -10210.064            0   -10153.472   -646.83448    31.705067    33.393868    33.552542    2.1526824     308.8217     6986.179 
  305000    294.15055   -10208.864            0   -10153.466   -999.34619    31.705067    33.393868    33.552542    2.3783452    310.02494    6984.6796 
  306000    289.16695   -10210.297            0   -10155.837   -80.326147    31.705067    33.393868    33.552542    2.5074884    311.24569    6983.5753 
  307000    304.75718   -10210.044            0   -10152.648   -574.37446    31.705067    33.393868    33.552542    2.2840838    312.42862    6981.6247 
  308000    317.68443   -10211.712            0   -10151.882   -1250.8779    31.705067    33.393868    33.552542    2.1571614    313.65905    6980.7374 
  309000    295.35346   -10209.377            0   -10153.753   -1405.5013    31.705067    33.393868    33.552542    1.9276763    314.84764      6978.92 
  310000    300.74417   -10211.279            0    -10154.64    43.546361    31.705067    33.393868    33.552542    2.4907731    316.02642     6976.891 
  311000    297.72858    -10208.36            0   -10152.288   -516.66744    31.705067    33.393868    33.552542    2.7513162    317.22803    6975.3703 
  312000    297.01918   -10211.281            0   -10155.343   -1907.6217    31.705067    33.393868    33.552542    2.0021527    318.42066    6973.6556 
  313000    308.67667   -10209.866            0   -10151.733   -439.46484    31.705067    33.393868    33.552542    2.5935666    319.67798    6973.3557 
  314000    293.42396    -10208.43            0   -10153.169   -1924.9832    31.705067    33.393868    33.552542    2.3847557    320.95638    6973.5068 
  315000     297.4895   -10209.689            0   -10153.662   -40.395613    31.705067    33.393868    33.552542    2.6035808    322.27893    6974.6026 
  316000    295.55587   -10210.654            0   -10154.992   -1800.4676    31.705067    33.393868    33.552542    2.2674187    323.55927    6974.7702 
  317000    293.49749   -10207.499            0   -10152.225   -1928.7134    31.705067    33.393868    33.552542     2.174194     324.8716    6975.6139 
  318000    302.95855   -10209.138            0   -10152.082   -1299.4657    31.705067    33.393868    33.552542    3.2792491    326.10115    6974.6709 
  319000    296.92224   -10205.537            0   -10149.617   -468.04262    31.705067    33.393868    33.552542    2.7833432    327.32742    6973.6559 
  320000    306.57959   -10209.646            0   -10151.907    -1312.386    31.705067    33.393868    33.552542     2.147001     328.5366    6972.2767 
  321000     299.9403   -10211.072            0   -10154.584    -1084.086    31.705067    33.393868    33.552542    1.9650334    329.74338     6970.848 
  322000    292.71277   -10208.997            0   -10153.869   -392.64025    31.705067    33.393868    33.552542    2.5525364    330.92144    6968.8162 
  323000    300.15571   -10209.745            0   -10153.216   -1325.5136    31.705067    33.393868    33.552542     2.110012    332.09874    6966.7746 
  324000    292.91085    -10210.32            0   -10155.156   -1762.6088    31.705067    33.393868    33.552542    2.8476536    333.30796    6965.4064 
  325000    307.63068   -10209.144            0   -10151.207    -658.3711    31.705067    33.393868    33.552542    2.4516835    334.53515    6964.4136 
  326000      301.438   -10210.671            0   -10153.901   -39.482022    31.705067    33.393868    33.552542    2.0800147    335.71347    6962.4055 
  327000    298.16054   -10209.638            0   -10153.484   -1089.0279    31.705067    33.393868    33.552542    2.5987624    336.93459    6961.2875 
  328000    298.57123    -10209.99            0   -10153.759   -550.71258    31.705067    33.393868    33.552542    2.0955661    338.13569    6959.7569 
  329000    300.29308   -10208.337            0   -10151.782   -1300.8628    31.705067    33.393868    33.552542    2.5758586    339.32395    6957.9653 
  330000    303.07887   -10211.188            0   -10154.108    -1863.742    31.705067    33.393868    33.552542    2.3292994    340.51173    6956.1682 
  331000    305.10079   -10210.882            0   -10153.421   -1212.8891    31.705067    33.393868    33.552542    2.3628583    341.72096     6954.812 
  332000    301.86816   -10210.574            0   -10153.723    -90.07417    31.705067    33.393868    33.552542    2.4737441     342.9608    6954.0776 
  333000    300.44247   -10208.931            0   -10152.348   -719.42735    31.705067    33.393868    33.552542    2.0496917    344.17582    6952.8382 
  334000    301.27271   -10212.919            0   -10156.179   -1859.0194    31.705067    33.393868    33.552542     1.974894    345.34221      6950.62 
  335000    305.43645   -10210.726            0   -10153.203   -1176.9905    31.705067    33.393868    33.552542    2.2600463    346.58158    6949.8728 
  336000    298.11395   -10212.374            0    -10156.23   -1487.0612    31.705067    33.393868    33.552542    2.0196673    347.78523    6948.4084 
  337000    300.52736   -10209.049            0    -10152.45   -782.10243    31.705067    33.393868    33.552542    2.5762682    349.05539    6948.2699 
  338000    290.92665   -10211.416            0   -10156.626   -1377.4274    31.705067    33.393868    33.552542    2.4709631    350.23516    6946.3306 
  339000    303.10964   -10210.131            0   -10153.045   -840.96804    31.705067    33.393868    33.552542    2.0088232    351.44125    6944.9168 
  340000    296.96644   -10209.541            0   -10153.612   -1169.1847    31.705067    33.393868    33.552542    2.5283815    352.59923    6942.5573 
  341000    308.35175   -10209.758            0   -10151.685   -474.38172    31.705067    33.393868    33.552542    2.3618836    353.81518    6941.3431 
  342000    303.49899   -10209.663            0   -10152.504   -36.445755    31.705067    33.393868    33.552542    2.4490702    355.07826    6941.0503 
  343000    303.62945   -10211.984            0   -10154.801   -1466.2411    31.705067    33.393868    33.552542    2.3795978    356.33195    6940.5681 
  344000    298.66198   -10209.823            0   -10153.575   -2346.5705    31.705067    33.393868    33.552542    2.1548025    357.51959    6938.7986 
  345000    306.74489   -10210.525            0   -10152.756   -1130.8892    31.705067    33.393868    33.552542    2.4005038     358.7347    6937.5643 
  346000    282.84003   -10208.946            0   -10155.679   -817.13274    31.705067    33.393868    33.552542    2.5940063    360.00899    6937.4706 
  347000    295.58719   -10208.688            0    -10153.02   -324.31151    31.705067    33.393868    33.552542    2.3010022    361.28389    6937.3806 
  348000    290.60234   -10207.378            0   -10152.648   -627.73321    31.705067    33.393868    33.552542    2.4901954    362.60977     6938.258 
  349000    311.14805   -10211.966            0   -10153.367    -1002.438    31.705067    33.393868    33.552542    2.4793266    363.90299    6938.4981 
  350000    295.08348   -10210.094            0   -10154.521   -708.40205    31.705067    33.393868    33.552542    2.1947377    365.17371    6938.3005 
  351000    306.01686   -10207.436            0   -10149.804   -1335.6282    31.705067    33.393868    33.552542    2.0468759    366.37411    6936.7643 
  352000    297.27782    -10209.61            0   -10153.623   -599.99262    31.705067    33.393868    33.552542    2.7852815    367.56274    6935.0083 
  353000    301.70797   -10210.962            0   -10154.141   -2036.4788    31.705067    33.393868    33.552542    2.3559153    368.76904    6933.5882 
  354000    303.55972   -10210.471            0   -10153.301   -311.54476    31.705067    33.393868    33.552542    1.9653931    369.93415    6931.3977 
  355000    289.92696   -10211.281            0   -10156.678   -767.16554    31.705067    33.393868    33.552542     2.670486    371.09939    6929.2165 
  356000    308.10071   -10209.727            0   -10151.702     409.5339    31.705067    33.393868    33.552542     2.119474    372.34603    6928.5565 
  357000    302.83806   -10211.459            0   -10154.425   -598.91597    31.705067    33.393868    33.552542    2.9151328    373.55682     6927.228 
  358000    295.22985   -10208.875            0   -10153.273   -801.26332    31.705067    33.393868    33.552542    3.0694796    374.74093    6925.4072 
  359000    298.06072    -10210.74            0   -10154.606    96.300268    31.705067    33.393868    33.552542    2.3698485    375.91892    6923.4776 
  360000    306.84564   -10211.297            0   -10153.508   -481.15987    31.705067    33.393868    33.552542    2.5934217     377.1057    6921.7144 
  361000    297.71081   -10211.764            0   -10155.696    -157.8271    31.705067    33.393868    33.552542    2.6199696    378.31897    6920.4392 
  362000    308.55493   -10209.835            0   -10151.724   -944.28054    31.705067    33.393868    33.552542    2.7114637    379.51971    6918.9363 
  363000    305.30872   -10211.348            0   -10153.849    -408.4714    31.705067    33.393868    33.552542    2.8434919    380.72701    6917.5543 
  364000    302.14937   -10213.092            0   -10156.188    23.861686    31.705067    33.393868    33.552542     2.156707    381.94445    6916.3572 
  365000    291.72953   -10210.205            0   -10155.263    3.7375354    31.705067    33.393868    33.552542    3.1719555    383.15488    6915.0332 
  366000    305.07322   -10210.238            0   -10152.782   -756.62565    31.705067    33.393868    33.552542    3.2708923    384.36015    6913.6173 
  367000    305.75407   -10211.817            0   -10154.234   -541.09352    31.705067    33.393868    33.552542    2.0708037    385.53742    6911.7007 
  368000    303.96219   -10212.113            0   -10154.867   -58.085595    31.705067    33.393868    33.552542    2.2611338    386.68191    6909.2032 
  369000    301.74432   -10211.116            0   -10154.288    488.28239    31.705067    33.393868    33.552542    2.5052248      387.877    6907.6152 
  370000    297.37026   -10210.609            0   -10154.605   -1213.1494    31.705067    33.393868    33.552542    2.3883692    389.07964    6906.1636 
  371000    295.14899   -10210.462            0   -10154.876   -300.40105    31.705067    33.393868    33.552542    2.5485441    390.28739     6904.804 
  372000    304.60349   -10210.809            0   -10153.442   -488.47258    31.705067    33.393868    33.552542    3.0540511    391.47501    6903.0904 
  373000    308.78717   -10210.335            0    -10152.18   -750.91659    31.705067    33.393868    33.552542    2.0069939    392.64093    6900.9986 
  374000    300.37129   -10210.341            0   -10153.771   -57.967172    31.705067    33.393868    33.552542    2.7625159    393.84942    6899.6583 
  375000    300.94889   -10209.168            0   -10152.489   -876.92297    31.705067    33.393868    33.552542    2.2885896      395.068    6898.4951 
  376000     302.0813   -10211.932            0    -10155.04   -1089.3604    31.705067    33.393868    33.552542    2.5517075     396.3041    6897.6365 
  377000    302.72553   -10212.684            0   -10155.671     43.69269    31.705067    33.393868    33.552542    2.4505592    397.48086    6895.7459 
  378000    300.24057   -10210.493            0   -10153.948   -2338.8671    31.705067    33.393868    33.552542    1.9495028    398.68139    6894.2709 
  379000    308.52637   -10212.926            0    -10154.82   -152.00818    31.705067    33.393868    33.552542    2.4063915    399.96643    6894.2541 
  380000    294.03609   -10210.329            0   -10154.953   -633.41565    31.705067    33.393868    33.552542    2.6278478    401.25457    6894.2831 
  381000    303.07921   -10209.462            0   -10152.382   -1394.9762    31.705067    33.393868    33.552542    2.1288864    402.54553    6894.3522 
  382000    300.28141   -10209.329            0   -10152.777   -767.29964    31.705067    33.393868    33.552542    2.4832117    403.85134    6894.6668 
  383000    308.13557   -10210.047            0   -10152.015   -499.69219    31.705067    33.393868    33.552542    2.1520088    405.13288    6894.5587 
  384000    297.77802   -10211.499            0   -10155.418   -1215.2717    31.705067    33.393868    33.552542     2.700834    406.33203    6893.0458 
  385000    296.58543   -10210.477            0   -10154.621    -1557.333    31.705067    33.393868    33.552542    2.4713714    407.48821    6890.8081 
  386000    299.63268   -10213.502            0   -10157.071   -1027.9069    31.705067    33.393868    33.552542    2.3230198    408.67354    6889.0682 
  387000    305.45393   -10212.104            0   -10154.577   -17.146419    31.705067    33.393868    33.552542     2.936304    409.85796    6887.3164 
  388000    296.03175   -10212.342            0    -10156.59    -760.9855    31.705067    33.393868    33.552542    2.3350946    411.06565    6885.9578 
  389000    306.47639   -10210.506            0   -10152.786   -1331.0846    31.705067    33.393868    33.552542    2.4476979     412.2637     6884.439 
  390000    297.06359   -10215.474            0   -10159.527   -1671.1152    31.705067    33.393868    33.552542    2.0837926     413.4382      6882.53 
  391000    302.69436    -10210.77            0   -10153.763    14.979579    31.705067    33.393868    33.552542    1.8057347    414.63385    6880.9765 
  392000    302.35974    -10208.94            0   -10151.996   -1171.7429    31.705067    33.393868    33.552542    2.2297229    415.82071    6879.2794 
  393000    303.71595   -10211.367            0   -10154.167   -996.93218    31.705067    33.393868    33.552542    2.3123955    416.99601    6877.3948 
  394000    300.93962   -10210.941            0   -10154.264   -1641.9966    31.705067    33.393868    33.552542    2.4008798    418.23547    6876.5692 
  395000    297.04691   -10209.881            0   -10153.937    -284.5872    31.705067    33.393868    33.552542    2.0198646    419.46213    6875.5315 
  396000    312.57686   -10211.687            0   -10152.819   -439.39939    31.705067    33.393868    33.552542    2.5788959    420.62929    6873.5203 
  397000     291.4209   -10210.301            0   -10155.417   -1435.2594    31.705067    33.393868    33.552542    2.2293915    421.82412    6871.9647 
  398000    297.70101   -10210.151            0   -10154.084   -1228.4924    31.705067    33.393868    33.552542      2.64752    422.98144     6869.802 
  399000    301.21861   -10208.451            0   -10151.721   -791.27887    31.705067    33.393868    33.552542    2.0878712    424.19592    6868.5707 
  400000    296.38197   -10210.887            0   -10155.068    55.425058    31.705067    33.393868    33.552542    2.1779964    425.39113    6867.0282 
  401000    300.22541   -10209.181            0   -10152.639   -458.58844    31.705067    33.393868    33.552542    2.5181699    426.56621    6865.1638 
  402000    298.53719     -10210.8            0   -10154.576   -1093.1109    31.705067    33.393868    33.552542     2.039255    427.77475    6863.8404 
  403000    299.03679   -10208.866            0   -10152.548   -700.32784    31.705067    33.393868    33.552542    1.9376642    428.97328    6862.3573 
  404000    303.89564   -10211.103            0   -10153.869   -1183.7738    31.705067    33.393868    33.552542     2.405732    430.15834     6860.661 
  405000    291.53971   -10210.205            0   -10155.299   -659.85298    31.705067    33.393868    33.552542    2.1900145    431.37643    6859.4929 
  406000    303.89291   -10211.332            0   -10154.099   -296.02353    31.705067    33.393868    33.552542    2.4583606    432.59449     6858.324 
  407000    293.31153   -10212.661            0   -10157.421   -1503.7951    31.705067    33.393868    33.552542    2.1928892    433.83038    6857.4365 
  408000    295.37971   -10209.681            0   -10154.051   -91.609656    31.705067    33.393868    33.552542    2.3503066    435.01946    6855.8095 
  409000    306.69327   -10213.411            0   -10155.651   -700.67476    31.705067    33.393868    33.552542    2.4218647    436.19515    6853.9745 
  410000    294.52427   -10209.735            0   -10154.267   -1229.3486    31.705067    33.393868    33.552542    2.4047696    437.36586    6852.0651 
  411000    302.86802    -10210.73            0    -10153.69   -302.74705    31.705067    33.393868    33.552542    2.7300998    438.59569    6851.0834 
  412000    291.31199   -10209.956            0   -10155.092   -22.144485    31.705067    33.393868    33.552542    2.7114809    439.89623    6851.2016 
  413000    297.66826   -10210.018            0   -10153.958   -695.23394    31.705067    33.393868    33.552542    2.0627662    441.19397    6851.2683 
  414000    304.61884   -10210.495            0   -10153.126    553.22938    31.705067    33.393868    33.552542    2.6205606     442.5231    6851.8137 
  415000    283.73482   -10210.404            0   -10156.967   -435.70941    31.705067    33.393868    33.552542     2.550828    443.81472    6851.7697 
  416000    305.73606   -10211.583            0   -10154.003   -226.44007    31.705067    33.393868    33.552542    2.3413444     445.1147    6851.8476 
  417000    296.45489   -10210.887            0   -10155.055   -1385.8244    31.705067    33.393868    33.552542    2.2499101     446.2891    6849.9904 
  418000    311.69412   -10212.443            0   -10153.741   -1013.3415    31.705067    33.393868    33.552542     1.912675    447.48478    6848.4628 
  419000    292.51271   -10213.196            0   -10158.106   -1591.4655    31.705067    33.393868    33.552542    2.1915198    448.68228    6846.9645 
  420000    303.30712   -10209.881            0   -10152.759   -973.97789    31.705067    33.393868    33.552542    3.1308046    449.84784     6844.982 
  421000    312.14566   -10212.251            0   -10153.464   -457.33024    31.705067    33.393868    33.552542    2.5222029    451.06732    6843.8219 
  422000     289.1564   -10211.141            0   -10156.684   -808.34551    31.705067    33.393868    33.552542    2.2370467    452.24148    6841.9759 
  423000    310.02491   -10212.396            0   -10154.008   -233.91505    31.705067    33.393868    33.552542    2.2660375    453.42854    6840.3282 
  424000    300.23011   -10209.128            0   -10152.585   -533.71558    31.705067    33.393868    33.552542    2.7017915    454.63634    6838.9948 
  425000    291.96709   -10210.621            0   -10155.634   -59.564232    31.705067    33.393868    33.552542    2.2878273    455.81117    6837.1675 
  426000    288.57371   -10209.998            0   -10155.651   -1220.0089    31.705067    33.393868    33.552542     2.307237    456.98838    6835.3794 
  427000    303.03833   -10209.626            0   -10152.554    33.848091    31.705067    33.393868    33.552542    2.4692359    458.16597    6833.6001 
  428000    298.64958    -10210.26            0   -10154.015    412.61374    31.705067    33.393868    33.552542    3.1498852    459.32528    6831.5522 
  429000    294.46223   -10210.884            0   -10155.427   -574.98286    31.705067    33.393868    33.552542    3.5463678     460.5228    6830.0756 
  430000    299.27348   -10209.811            0   -10153.448   -588.96475    31.705067    33.393868    33.552542    2.6701503    461.78029    6829.4874 
  431000    294.57628   -10210.996            0   -10155.518    110.79183    31.705067    33.393868    33.552542    2.9442654    462.97704         6828 
  432000    294.86824   -10210.673            0    -10155.14   -1108.1618    31.705067    33.393868    33.552542    2.0294272    464.17651    6826.5541 
  433000    312.06508   -10211.095            0   -10152.323   -314.42543    31.705067    33.393868    33.552542    2.0462881    465.39306    6825.3599 
  434000    286.67059   -10212.075            0   -10158.086   -845.48865    31.705067    33.393868    33.552542    2.5980828    466.57851    6823.7107 
  435000    300.78328   -10210.315            0   -10153.668   -348.67579    31.705067    33.393868    33.552542    2.3681169    467.81835    6822.8573 
  436000    308.09704   -10210.198            0   -10152.174   -373.12748    31.705067    33.393868    33.552542    2.7276237     469.0187    6821.4274 
  437000    306.45814   -10211.258            0   -10153.542   -76.287635    31.705067    33.393868    33.552542    2.2790478    470.25725    6820.5528 
  438000    307.08853   -10212.306            0   -10154.471   -712.25839    31.705067    33.393868    33.552542    2.4199299      471.423    6818.6234 
  439000    281.25715   -10210.942            0   -10157.972    -738.5407    31.705067    33.393868    33.552542    2.5974673    472.58902    6816.7018 
  440000    311.67956   -10212.903            0   -10154.204   -436.47814    31.705067    33.393868    33.552542    2.4790095    473.77269     6815.038 
  441000    304.36514   -10210.477            0   -10153.155   -1492.0519    31.705067    33.393868    33.552542    2.2817069    474.94953    6813.2786 
  442000    284.71134   -10211.746            0   -10158.125   -1526.0557    31.705067    33.393868    33.552542      2.11912    476.15684     6811.958 
  443000    305.51183   -10210.258            0   -10152.721    -426.7423    31.705067    33.393868    33.552542    2.2304639    477.37532    6810.7975 
  444000    299.25186   -10211.544            0   -10155.185   -1050.1762    31.705067    33.393868    33.552542    2.5080825    478.60545    6809.8025 
  445000    301.42053   -10210.061            0   -10153.294   -235.92903    31.705067    33.393868    33.552542    2.7688366    479.85026    6809.0145 
  446000    297.27411   -10213.641            0   -10157.655   -1190.9594    31.705067    33.393868    33.552542    2.5144693    481.13268    6808.7565 
  447000     296.3176   -10211.199            0   -10155.393   -753.27592    31.705067    33.393868    33.552542    2.1269731    482.41675    6808.5166 
  448000    301.61801   -10209.327            0   -10152.523   -1348.5292    31.705067    33.393868    33.552542    2.3281766    483.75933    6809.0948 
  449000    307.71947   -10213.475            0   -10155.522   -315.73941    31.705067    33.393868    33.552542    2.3444744    485.02041    6808.5196 
  450000    299.47332   -10211.364            0   -10154.963   -1070.4385    31.705067    33.393868    33.552542    2.2863636     486.2395     6807.353 
  451000    303.22564   -10211.241            0   -10154.134   -823.12185    31.705067    33.393868    33.552542    2.7574214    487.41878    6805.6303 
  452000    300.05053   -10208.745            0   -10152.236   -1170.9552    31.705067    33.393868    33.552542     2.969443    488.57386    6803.5733 
  453000     306.0904   -10213.001            0   -10155.354   -1440.6594    31.705067    33.393868    33.552542     2.205449    489.76988    6802.0894 
  454000    297.77797   -10210.546            0   -10154.465   -616.74608    31.705067    33.393868    33.552542    2.0184203     490.9651    6800.5958 
  455000    313.52481   -10211.001            0   -10151.954   -149.86218    31.705067    33.393868    33.552542    2.1358437    492.16139    6799.1184 
  456000    296.08898   -10211.615            0   -10155.852   -545.02553    31.705067    33.393868    33.552542    2.3588794    493.33506    6797.3309 
  457000     302.0581   -10211.974            0   -10155.086   -980.56474    31.705067    33.393868    33.552542    2.1104408    494.54104    6795.9903 
  458000    291.03388   -10213.196            0   -10158.385   -1759.0992    31.705067    33.393868    33.552542    2.2368779    495.71526     6794.215 
  459000    290.84218   -10211.641            0   -10156.866   -1483.6771    31.705067    33.393868    33.552542    2.2862513     496.9442    6793.1908 
  460000     295.1079   -10210.672            0   -10155.094   -992.59784    31.705067    33.393868    33.552542    2.8410688    498.11466    6791.3682 
  461000     302.0727   -10208.602            0   -10151.712   -813.30896    31.705067    33.393868    33.552542    2.3041908    499.31249    6789.9209 
  462000    288.67635   -10210.922            0   -10156.555   -675.21583    31.705067    33.393868    33.552542    2.1345407    500.54077    6788.8879 
  463000     309.3204   -10210.994            0    -10152.74    -458.4058    31.705067    33.393868    33.552542    2.3686153      501.767    6787.8262 
  464000    306.76274   -10213.091            0   -10155.318    -1509.068    31.705067    33.393868    33.552542    2.0900891    502.93353    6785.9582 
  465000    292.97322    -10211.17            0   -10155.993   -1254.8111    31.705067    33.393868    33.552542    2.5925087      504.088    6783.9313 
  466000    301.50615   -10211.677            0   -10154.893   -912.04198    31.705067    33.393868    33.552542    2.1718166    505.27205    6782.3056 
  467000    296.87873   -10212.024            0   -10156.113   -720.68557    31.705067    33.393868    33.552542    2.2608733    506.43747    6780.4326 
  468000    309.91614   -10211.384            0   -10153.017   -578.07588    31.705067    33.393868    33.552542    2.3287412    507.61442     6778.717 
  469000     310.4617   -10211.526            0   -10153.056   -593.08163    31.705067    33.393868    33.552542    2.4189933    508.82739    6777.4837 
  470000    302.07013   -10212.247            0   -10155.357    -81.99541    31.705067    33.393868    33.552542    2.1173255    510.02625     6776.063 
  471000     306.9226   -10212.072            0   -10154.268   -1408.4927    31.705067    33.393868    33.552542    2.1859379    511.19124    6774.1946 
  472000    294.29655   -10210.729            0   -10155.304    -461.9394    31.705067    33.393868    33.552542    2.4034796    512.35797    6772.3525 
  473000     298.2364   -10213.244            0   -10157.077   -948.54515    31.705067    33.393868    33.552542    2.0783186    513.56672    6771.0676 
  474000    299.63763   -10210.682            0    -10154.25   -1065.5967    31.705067    33.393868    33.552542    2.3388713    514.77199    6769.7372 
  475000    293.27457    -10212.18            0   -10156.947   -1258.0479    31.705067    33.393868    33.552542    1.8807751    515.95883    6768.1658 
  476000    299.17887   -10212.103            0   -10155.758   -245.25837    31.705067    33.393868    33.552542    2.2379286    517.19481    6767.2392 
  477000    306.71392   -10212.258            0   -10154.494   -1191.0709    31.705067    33.393868    33.552542    2.2467312    518.40526    6765.9778 
  478000    306.76673   -10211.965            0   -10154.191      -507.86    31.705067    33.393868    33.552542    2.5132024    519.63325    6764.9451 
  479000    300.74966   -10211.472            0   -10154.832    -2218.136    31.705067    33.393868    33.552542    2.5506325    520.92757    6764.7727 
  480000    296.96184    -10211.73            0   -10155.802   -437.35051    31.705067    33.393868    33.552542    2.3548756    522.21338     6764.485 
  481000    297.60613   -10214.095            0   -10158.047   -1520.7596    31.705067    33.393868    33.552542    2.4816725    523.54125    6764.7361 
  482000    309.04735   -10213.728            0   -10155.525   -533.23729    31.705067    33.393868    33.552542    2.4230277    524.80473    6764.1498 
  483000     315.6728   -10210.458            0   -10151.007   -520.46853    31.705067    33.393868    33.552542    2.2336302    526.02407    6762.9931 
  484000    306.81283   -10211.796            0   -10154.013   -699.79192    31.705067    33.393868    33.552542    2.2673484    527.24314    6761.8325 
  485000    302.56566   -10212.831            0   -10155.848   -1666.7969    31.705067    33.393868    33.552542    2.8257019     528.4354    6760.3288 
  486000    297.48663   -10214.213            0   -10158.187    92.594024    31.705067    33.393868    33.552542    2.1790807     529.6334    6758.8996 
  487000    309.13037   -10211.115            0   -10152.896   -797.81498    31.705067    33.393868    33.552542     2.084421    530.86348      6757.88 
  488000    305.59749   -10211.343            0   -10153.789    670.79751    31.705067    33.393868    33.552542    2.4481413    532.03748    6756.1473 
  489000    293.99118    -10213.04            0   -10157.672   -441.52093    31.705067    33.393868    33.552542    2.3578403    533.23965    6754.7738 
  490000    305.65329   -10210.383            0   -10152.819   -644.36656    31.705067    33.393868    33.552542    2.6474563    534.44666    6753.4623 
[...]
15930000     292.3994   -10217.178            0    -10162.11   -1598.3312    31.705067    33.393868    33.552542    1.9294244    11886.874    144.37498 
15931000    309.80129   -10215.485            0   -10157.139   -1464.8189    31.705067    33.393868    33.552542    2.0982754     11888.05    143.17153 
15932000    296.85374   -10218.649            0   -10162.742   -1453.4801    31.705067    33.393868    33.552542    2.3562002    11889.267    141.96858 
15933000    312.12303    -10218.92            0   -10160.137   -1429.7118    31.705067    33.393868    33.552542    2.2765678    11890.473    140.76549 
15934000    302.28335   -10217.668            0   -10160.739   -572.74009    31.705067    33.393868    33.552542    2.1743126    11891.704     139.5627 
15935000    305.03444   -10219.488            0   -10162.041   -742.41733    31.705067    33.393868    33.552542    2.0543776    11892.859    138.35901 
15936000    314.01778   -10217.568            0   -10158.428   -737.05072    31.705067    33.393868    33.552542    2.9493973    11894.046     137.1557 
15937000    294.83077   -10218.918            0   -10163.392   -966.80136    31.705067    33.393868    33.552542    2.3514904    11895.223    135.95228 
15938000    300.64595   -10215.941            0    -10159.32   -762.12469    31.705067    33.393868    33.552542    2.3959687     11896.42    134.74909 
15939000    300.48984   -10218.225            0   -10161.633   -1278.3461    31.705067    33.393868    33.552542    2.5314266    11897.616     133.5459 
15940000    300.04431   -10217.786            0   -10161.278   -1815.1874    31.705067    33.393868    33.552542    3.3891858    11898.791    132.34247 
15941000    297.44143   -10218.184            0   -10162.166   -893.82885    31.705067    33.393868    33.552542    2.3836184    11899.968    131.13907 
15942000    308.67399   -10218.582            0   -10160.448   -1579.7021    31.705067    33.393868    33.552542    2.3428295    11901.143    129.93565 
15943000    303.05665   -10218.034            0   -10160.958   -973.36751    31.705067    33.393868    33.552542    2.3780081    11902.406    128.73318 
15944000    295.95267    -10215.87            0   -10160.132   -973.09316    31.705067    33.393868    33.552542    2.5018673    11903.648    127.53049 
15945000     311.8542   -10217.063            0   -10158.331    -1000.227    31.705067    33.393868    33.552542    2.2282513    11904.953    126.32845 
15946000    292.21946   -10218.569            0   -10163.535   -1470.0687    31.705067    33.393868    33.552542    2.3983161    11906.233    125.12614 
15947000    306.39655   -10217.412            0   -10159.708   -1996.2546    31.705067    33.393868    33.552542    1.9196997    11907.504    123.92371 
15948000    296.37363   -10216.931            0   -10161.115   -1456.8907    31.705067    33.393868    33.552542    2.6887148     11908.67    122.72018 
15949000     307.0277     -10217.6            0   -10159.776   -608.15977    31.705067    33.393868    33.552542    2.2235125    11909.876    121.51707 
15950000    303.42399   -10217.859            0   -10160.715   -1550.2271    31.705067    33.393868    33.552542    2.1770306    11911.094    120.31408 
15951000    300.02363   -10218.903            0   -10162.399   -1030.9765    31.705067    33.393868    33.552542    2.2708976     11912.27    119.11067 
15952000    301.94032   -10217.827            0   -10160.962   -1841.7851    31.705067    33.393868    33.552542     3.144104    11913.477    117.90757 
15953000    298.13743   -10218.294            0   -10162.145   -1952.5751    31.705067    33.393868    33.552542    2.0710771    11914.653    116.70416 
15954000     303.4978   -10217.782            0   -10160.624   -1538.4249    31.705067    33.393868    33.552542    2.1956889     11915.91    115.50155 
15955000    298.02604   -10218.968            0    -10162.84   -924.01686    31.705067    33.393868    33.552542    2.3770216    11917.087    114.29816 
15956000    305.92436   -10217.416            0   -10159.801   -1372.4038    31.705067    33.393868    33.552542    2.2176215    11918.304    113.09515 
15957000    301.67413   -10217.907            0   -10161.092   -1410.5191    31.705067    33.393868    33.552542     3.073669    11919.478    111.89174 
15958000    304.05782   -10219.016            0   -10161.752   -510.58468    31.705067    33.393868    33.552542    2.2252931    11920.672    110.68852 
15959000    309.72172   -10218.683            0   -10160.353   -2346.6615    31.705067    33.393868    33.552542    2.2847468    11921.929    109.48587 
15960000    303.29918    -10219.16            0   -10162.039   -1002.9363    31.705067    33.393868    33.552542    3.1907643    11923.168    108.28306 
15961000    290.76411    -10217.61            0    -10162.85   -1346.8613    31.705067    33.393868    33.552542    2.2835311    11924.353    107.07975 
15962000    311.97765   -10216.865            0   -10158.109   -1964.6146    31.705067    33.393868    33.552542    2.1744147    11925.601    105.87701 
15963000    301.38026   -10218.933            0   -10162.174   -1001.7981    31.705067    33.393868    33.552542    2.4829079    11926.799    104.67381 
15964000    305.59516   -10215.362            0   -10157.809   -1172.2771    31.705067    33.393868    33.552542    2.1955471    11928.004    103.47069 
15965000    282.88421   -10215.878            0   -10162.602   -1694.3174    31.705067    33.393868    33.552542    2.8491579     11929.19    102.26739 
15966000    298.21803   -10215.969            0   -10159.805   -1281.9448    31.705067    33.393868    33.552542    2.1317314    11930.416    101.06444 
15967000    296.53846    -10218.42            0   -10162.573   -1227.4832    31.705067    33.393868    33.552542    2.2255455    11931.592    99.861057 
15968000    306.68361   -10218.223            0   -10160.465   -1176.0029    31.705067    33.393868    33.552542    2.6925298    11932.766    98.657675 
15969000    298.87919   -10218.742            0   -10162.454   -2124.3056    31.705067    33.393868    33.552542    2.2861396     11933.93    97.454216 
15970000    301.90854   -10217.885            0   -10161.026   -1936.7673    31.705067    33.393868    33.552542    3.0582164    11935.113    96.250914 
15971000    301.38221   -10218.048            0   -10161.288   -568.68069    31.705067    33.393868    33.552542    2.8104877    11936.287     95.04754 
15972000    304.21074   -10215.801            0   -10158.508   -1686.0659    31.705067    33.393868    33.552542    2.1127401    11937.483    93.844349 
15973000    302.70807   -10217.875            0   -10160.865   -1119.4873    31.705067    33.393868    33.552542    2.3284091    11938.678    92.641155 
15974000     301.6397   -10218.079            0    -10161.27    -729.4156    31.705067    33.393868    33.552542    2.7144558    11939.924    91.438352 
15975000    293.10819    -10218.58            0   -10163.379   -659.92962    31.705067    33.393868    33.552542    2.3226533    11941.119    90.235153 
15976000    296.62728   -10218.823            0   -10162.958   -1347.8782    31.705067    33.393868    33.552542    2.1745549    11942.393     89.03255 
15977000    305.64073   -10218.149            0   -10160.587   -1552.3229    31.705067    33.393868    33.552542    2.2442292    11943.679    87.830014 
15978000    306.24524   -10217.256            0    -10159.58   -1192.9586    31.705067    33.393868    33.552542      2.49627    11945.026    86.627907 
15979000    299.95475    -10218.15            0   -10161.659   -1944.8842    31.705067    33.393868    33.552542    2.8006939    11946.324    85.425417 
15980000    290.00183   -10217.386            0   -10162.769   -626.56062    31.705067    33.393868    33.552542    2.3957041    11947.645    84.223077 
15981000    298.49421   -10217.871            0   -10161.655   -2468.5767    31.705067    33.393868    33.552542     2.161256    11948.819    83.019684 
15982000    294.97019   -10217.299            0   -10161.746   -1480.7974    31.705067    33.393868    33.552542    2.3183932    11950.003    81.816372 
15983000    295.37524   -10216.661            0   -10161.033   -1662.4938    31.705067    33.393868    33.552542    2.5837328    11951.224    80.613307 
15984000    296.82173   -10218.369            0   -10162.468   -1643.7889    31.705067    33.393868    33.552542    2.6127844    11952.439    79.410204 
15985000    297.04607   -10216.636            0   -10160.693    -1969.238    31.705067    33.393868    33.552542    2.6049441    11953.655    78.207106 
15986000    304.25826   -10217.837            0   -10160.535   -907.38745    31.705067    33.393868    33.552542    2.3677984    11954.855    77.003898 
15987000    307.33229    -10219.16            0    -10161.28   -1125.5369    31.705067    33.393868    33.552542    2.1877063    11956.043    75.800617 
15988000    302.92593   -10215.671            0    -10158.62   -1787.8344    31.705067    33.393868    33.552542    2.6994984     11957.21    74.597202 
15989000    302.60121   -10217.143            0   -10160.153   -1643.5509    31.705067    33.393868    33.552542    2.1318468    11958.415    73.394033 
15990000    291.17065   -10218.149            0   -10163.312   -1168.6338    31.705067    33.393868    33.552542    2.1576398    11959.621    72.190873 
15991000    302.96174   -10216.712            0   -10159.654   -2403.4166    31.705067    33.393868    33.552542    2.2515016    11960.798    70.987533 
15992000    304.92762   -10220.048            0   -10162.621    -1113.696    31.705067    33.393868    33.552542    2.5012901    11961.982    69.784246 
15993000    299.29135   -10219.756            0    -10163.39   -908.73579    31.705067    33.393868    33.552542     2.131209      11963.2    68.581152 
15994000    312.16934   -10216.157            0   -10157.365   -1458.0046    31.705067    33.393868    33.552542    2.4693472    11964.401    67.377962 
15995000    297.55584   -10218.448            0   -10162.409   -1185.2168    31.705067    33.393868    33.552542    1.9307465    11965.607      66.1748 
15996000     306.2493   -10214.552            0   -10156.875   -747.23086    31.705067    33.393868    33.552542    2.3558189    11966.762    64.971363 
15997000    297.46408    -10217.07            0   -10161.048   -1604.0649    31.705067    33.393868    33.552542    2.3121972    11967.941    63.768057 
15998000    302.22197   -10217.406            0   -10160.488   -1264.9773    31.705067    33.393868    33.552542    2.2132774    11969.147    62.564902 
15999000    293.57197   -10219.272            0   -10163.983   -1376.1597    31.705067    33.393868    33.552542    2.7176811    11970.344    61.361698 
16000000    301.22186   -10221.209            0    -10164.48   -861.53673    31.705067    33.393868    33.552542    2.0579543    11971.496    60.158271 
16001000    297.66462   -10216.673            0   -10160.613   -904.73808    31.705067    33.393868    33.552542     2.228129    11972.713    58.955172 
16002000    305.90312   -10216.582            0   -10158.971   -1071.7191    31.705067    33.393868    33.552542    2.4015853    11973.878    57.751823 
16003000    291.87431   -10219.636            0   -10164.667   -1048.9275    31.705067    33.393868    33.552542    2.1595358    11975.093    56.548718 
16004000    292.56132   -10216.733            0   -10161.634   -1652.2052    31.705067    33.393868    33.552542    2.3989517    11976.269    55.345426 
16005000    294.78435   -10219.217            0   -10163.699   -1524.8625    31.705067    33.393868    33.552542    2.2473875    11977.486    54.142328 
16006000    300.54007   -10216.698            0   -10160.097   -917.28797    31.705067    33.393868    33.552542    2.4525132    11978.662    52.939046 
16007000    286.78787   -10216.736            0   -10162.724   -1806.2672    31.705067    33.393868    33.552542    2.0669383    11979.817    51.735678 
16008000    294.87687   -10215.485            0    -10159.95   -1873.6612    31.705067    33.393868    33.552542    2.2668073    11981.023    50.532532 
16009000    297.43012   -10216.929            0   -10160.914   -606.80108    31.705067    33.393868    33.552542    2.3155451    11982.271    49.329562 
16010000    304.36017     -10217.3            0    -10159.98   -2040.6471    31.705067    33.393868    33.552542    2.2592751    11983.586    48.126851 
16011000    299.25925   -10219.968            0   -10163.608   -1548.4095    31.705067    33.393868    33.552542    1.9350825     11984.88    46.924035 
16012000    305.83485   -10218.922            0   -10161.323   -1630.8057    31.705067    33.393868    33.552542    2.6167192    11986.182    45.721233 
16013000    284.31362   -10217.935            0    -10164.39   -2240.9609    31.705067    33.393868    33.552542    2.5569389     11987.46    44.518319 
16014000    297.23848   -10214.537            0   -10158.557   -1700.8079    31.705067    33.393868    33.552542    2.0702703    11988.668     43.31514 
16015000    295.75145   -10217.415            0   -10161.716   -1132.7476    31.705067    33.393868    33.552542    2.3968609     11989.82    42.111763 
16016000    300.84643   -10219.871            0   -10163.212   -1263.9485    31.705067    33.393868    33.552542    2.0544661    11990.996    40.908474 
16017000    305.38277   -10216.945            0   -10159.431   -1323.9832    31.705067    33.393868    33.552542    2.3731335    11992.192    39.705262 
16018000    318.40668   -10220.031            0   -10160.065   -1777.5794    31.705067    33.393868    33.552542    2.5752102    11993.368    38.501983 
16019000    297.18866   -10217.775            0   -10161.805   -1625.6881    31.705067    33.393868    33.552542    2.3428498    11994.565    37.298778 
16020000    290.09057    -10215.49            0   -10160.856   -1356.6535    31.705067    33.393868    33.552542    2.5300484      11995.8    36.095688 
16021000    304.56795   -10216.495            0   -10159.135   -1706.6233    31.705067    33.393868    33.552542    2.4811435    11996.996    34.892476 
16022000    296.43103   -10219.681            0   -10163.854   -951.43461    31.705067    33.393868    33.552542    2.5599269    11998.241    33.689406 
16023000    303.72978   -10217.613            0   -10160.411   -2027.9243    31.705067    33.393868    33.552542    2.7418118    11999.394    32.486077 
16024000     296.9249   -10219.378            0   -10163.458   -1765.5573    31.705067    33.393868    33.552542    2.1822707    12000.587     31.28286 
16025000    301.35222   -10219.404            0    -10162.65   -351.52051    31.705067    33.393868    33.552542    2.2727746    12001.789    30.079672 
16026000    303.66873   -10218.716            0   -10161.525   -741.55722    31.705067    33.393868    33.552542    2.4474975    12002.995    28.876491 
16027000    297.34211   -10216.043            0   -10160.044   -1655.8462    31.705067    33.393868    33.552542    2.5603977    12004.222    27.673358 
16028000    304.58251   -10217.671            0   -10160.309   -1376.2303    31.705067    33.393868    33.552542    2.1187283    12005.396    26.470106 
16029000    307.91921   -10215.775            0   -10157.784   -1015.6346    31.705067    33.393868    33.552542     2.306547    12006.604    25.266929 
16030000    294.12853   -10217.695            0   -10162.301   -1156.7532    31.705067    33.393868    33.552542    2.8090329    12007.758    24.063643 
16031000    300.13136   -10219.524            0   -10162.999   -618.39184    31.705067    33.393868    33.552542     2.030015    12008.941    22.860423 
16032000    301.42604   -10216.463            0   -10159.695   -718.85383    31.705067    33.393868    33.552542    2.3508414    12010.095    21.657155 
16033000    308.49338   -10217.777            0   -10159.678   -1104.7274    31.705067    33.393868    33.552542    2.1591979    12011.284    20.453955 
16034000    309.52455   -10217.575            0   -10159.281   -1031.1645    31.705067    33.393868    33.552542    2.4738203    12012.451    19.250723 
16035000    304.37701   -10218.671            0   -10161.347    -1043.837    31.705067    33.393868    33.552542    2.2409341    12013.668    18.047573 
16036000    306.22675   -10218.416            0   -10160.744   -1436.7507    31.705067    33.393868    33.552542    2.4832644    12014.865    16.844393 
16037000    302.41125   -10217.799            0   -10160.845   -1275.6582    31.705067    33.393868    33.552542    2.2647527    12016.079    15.641237 
16038000    296.14924   -10219.356            0   -10163.581   -528.36847    31.705067    33.393868    33.552542    2.9243507    12017.263    14.438041 
16039000    311.52207   -10218.958            0   -10160.288   -1632.0656    31.705067    33.393868    33.552542    2.1028094    12018.468    13.234873 
16040000    295.83551   -10216.941            0   -10161.225   -1450.0062    31.705067    33.393868    33.552542    2.0309757    12019.685    12.031717 
16041000    302.15481   -10216.077            0   -10159.171   -1805.4625    31.705067    33.393868    33.552542    3.0234534    12020.903    10.828558 
16042000    294.50328   -10216.259            0   -10160.795   -1780.6277    31.705067    33.393868    33.552542    2.2080329     12022.17    9.6254363 
16043000    292.87373   -10219.013            0   -10163.856   -1419.7153    31.705067    33.393868    33.552542    3.1046535    12023.447    8.4223083 
16044000    294.60008   -10216.742            0   -10161.259   -1353.0323    31.705067    33.393868    33.552542    2.0789285    12024.728    7.2191681 
16045000    297.23114   -10219.947            0   -10163.969   -932.03151    31.705067    33.393868    33.552542    2.6948329    12025.985    6.0160004 
16046000    307.23046    -10218.15            0   -10160.288   -1982.2835    31.705067    33.393868    33.552542    2.2046756    12027.268    4.8128322 
16047000    311.45743   -10219.656            0   -10160.999   -1107.1523    31.705067    33.393868    33.552542    2.5593069    12028.505    3.6096344 
16048000    306.28249   -10214.948            0   -10157.265   -717.43489    31.705067    33.393868    33.552542    2.1026101     12029.69    2.4064194 
16049000     309.4323   -10218.302            0   -10160.026   -1837.1844    31.705067    33.393868    33.552542    2.1627072    12030.899    1.2032102 
16050000    307.37119   -10220.861            0   -10162.973   -1037.2766    31.705067    33.393868    33.552542     2.666758    12032.117            0 
Loop time of 12032.1 on 80 procs for 10000000 steps with 1458 atoms

Performance: 71.808 ns/day, 0.334 hours/ns, 831.109 timesteps/s
99.4% CPU use with 80 MPI tasks x 1 OpenMP threads

MPI task timing breakdown:
Section |  min time  |  avg time  |  max time  |%varavg| %total
---------------------------------------------------------------
Pair    | 989.38     | 1292.8     | 1654.5     | 450.4 | 10.74
Kspace  | 5790.3     | 6199.3     | 6516       | 195.4 | 51.52
Neigh   | 18.22      | 21.534     | 25.391     |  34.3 |  0.18
Comm    | 4252.1     | 4359.1     | 4518.9     | 108.0 | 36.23
Output  | 8.2722     | 8.2753     | 8.2996     |   0.1 |  0.07
Modify  | 83.646     | 97.012     | 114.53     | 103.2 |  0.81
Other   |            | 54.05      |            |       |  0.45

Nlocal:    18.225 ave 24 max 12 min
Histogram: 1 0 8 8 7 36 14 3 0 3
Nghost:    1845.61 ave 1875 max 1817 min
Histogram: 4 9 11 5 7 14 12 8 6 4
Neighs:    4289.46 ave 5965 max 2666 min
Histogram: 1 3 7 15 15 21 8 8 1 1

Total # of neighbors = 343157
Ave neighs/atom = 235.361
Neighbor list builds = 163536
Dangerous builds = 0

# Final Commands
variable        final_energy equal etotal
print           "final_energy: ${'final_energy'}"
ERROR on proc 0: Substitution for illegal variable 'final_energy' (../input.cpp:553)
Last command: final_energy: ${'final_energy'
