  54  54   1   0
  0.2008064E+02  0.1028844E-08  0.1027367E-08  0.1025965E-08  0.5000000E-15
   1.0000000000000000E-004
  CAR 
 unknown system                          
     11.19529891    -51.04488220  301      0.64040153      1.00000000
    -51.045  0.0000E+00  0.0000E+00
    -50.837  0.0000E+00  0.0000E+00
    -50.630  0.0000E+00  0.0000E+00
    -50.422  0.0000E+00  0.0000E+00
    -50.215  0.0000E+00  0.0000E+00
    -50.008  0.0000E+00  0.0000E+00
    -49.800  0.0000E+00  0.0000E+00
    -49.593  0.0000E+00  0.0000E+00
    -49.385  0.0000E+00  0.0000E+00
    -49.178  0.0000E+00  0.0000E+00
    -48.970  0.0000E+00  0.0000E+00
    -48.763  0.0000E+00  0.0000E+00
    -48.555  0.0000E+00  0.0000E+00
    -48.348  0.2269E-05  0.4707E-06
    -48.140  0.2370E-01  0.4918E-02
    -47.933  0.4236E-01  0.1371E-01
    -47.725  0.4693E-01  0.2344E-01
    -47.518  0.7509E-02  0.2500E-01
    -47.310  0.0000E+00  0.2500E-01
    -47.103  0.0000E+00  0.2500E-01
    -46.896  0.0000E+00  0.2500E-01
    -46.688  0.0000E+00  0.2500E-01
    -46.481  0.0000E+00  0.2500E-01
    -46.273  0.0000E+00  0.2500E-01
    -46.066  0.0000E+00  0.2500E-01
    -45.858  0.0000E+00  0.2500E-01
    -45.651  0.0000E+00  0.2500E-01
    -45.443  0.0000E+00  0.2500E-01
    -45.236  0.0000E+00  0.2500E-01
    -45.028  0.0000E+00  0.2500E-01
    -44.821  0.0000E+00  0.2500E-01
    -44.613  0.0000E+00  0.2500E-01
    -44.406  0.0000E+00  0.2500E-01
    -44.198  0.0000E+00  0.2500E-01
    -43.991  0.0000E+00  0.2500E-01
    -43.784  0.0000E+00  0.2500E-01
    -43.576  0.0000E+00  0.2500E-01
    -43.369  0.0000E+00  0.2500E-01
    -43.161  0.1755E-06  0.2500E-01
    -42.954  0.2335E-01  0.2984E-01
    -42.746  0.1100E+00  0.5267E-01
    -42.539  0.1121E+00  0.7594E-01
    -42.331  0.1220E+00  0.1013E+00
    -42.124  0.4217E-01  0.1100E+00
    -41.916  0.3235E-05  0.1100E+00
    -41.709  0.0000E+00  0.1100E+00
    -41.501  0.0000E+00  0.1100E+00
    -41.294  0.0000E+00  0.1100E+00
    -41.086  0.0000E+00  0.1100E+00
    -40.879  0.0000E+00  0.1100E+00
    -40.672  0.0000E+00  0.1100E+00
    -40.464  0.0000E+00  0.1100E+00
    -40.257  0.0000E+00  0.1100E+00
    -40.049  0.0000E+00  0.1100E+00
    -39.842  0.0000E+00  0.1100E+00
    -39.634  0.0000E+00  0.1100E+00
    -39.427  0.0000E+00  0.1100E+00
    -39.219  0.0000E+00  0.1100E+00
    -39.012  0.0000E+00  0.1100E+00
    -38.804  0.0000E+00  0.1100E+00
    -38.597  0.0000E+00  0.1100E+00
    -38.389  0.0000E+00  0.1100E+00
    -38.182  0.0000E+00  0.1100E+00
    -37.974  0.0000E+00  0.1100E+00
    -37.767  0.0000E+00  0.1100E+00
    -37.560  0.0000E+00  0.1100E+00
    -37.352  0.0000E+00  0.1100E+00
    -37.145  0.0000E+00  0.1100E+00
    -36.937  0.0000E+00  0.1100E+00
    -36.730  0.0000E+00  0.1100E+00
    -36.522  0.0000E+00  0.1100E+00
    -36.315  0.0000E+00  0.1100E+00
    -36.107  0.0000E+00  0.1100E+00
    -35.900  0.0000E+00  0.1100E+00
    -35.692  0.0000E+00  0.1100E+00
    -35.485  0.0000E+00  0.1100E+00
    -35.277  0.0000E+00  0.1100E+00
    -35.070  0.0000E+00  0.1100E+00
    -34.862  0.0000E+00  0.1100E+00
    -34.655  0.0000E+00  0.1100E+00
    -34.448  0.0000E+00  0.1100E+00
    -34.240  0.0000E+00  0.1100E+00
    -34.033  0.0000E+00  0.1100E+00
    -33.825  0.0000E+00  0.1100E+00
    -33.618  0.0000E+00  0.1100E+00
    -33.410  0.0000E+00  0.1100E+00
    -33.203  0.0000E+00  0.1100E+00
    -32.995  0.0000E+00  0.1100E+00
    -32.788  0.0000E+00  0.1100E+00
    -32.580  0.0000E+00  0.1100E+00
    -32.373  0.0000E+00  0.1100E+00
    -32.165  0.0000E+00  0.1100E+00
    -31.958  0.0000E+00  0.1100E+00
    -31.750  0.0000E+00  0.1100E+00
    -31.543  0.0000E+00  0.1100E+00
    -31.335  0.0000E+00  0.1100E+00
    -31.128  0.0000E+00  0.1100E+00
    -30.921  0.0000E+00  0.1100E+00
    -30.713  0.0000E+00  0.1100E+00
    -30.506  0.0000E+00  0.1100E+00
    -30.298  0.0000E+00  0.1100E+00
    -30.091  0.0000E+00  0.1100E+00
    -29.883  0.0000E+00  0.1100E+00
    -29.676  0.0000E+00  0.1100E+00
    -29.468  0.0000E+00  0.1100E+00
    -29.261  0.0000E+00  0.1100E+00
    -29.053  0.0000E+00  0.1100E+00
    -28.846  0.0000E+00  0.1100E+00
    -28.638  0.0000E+00  0.1100E+00
    -28.431  0.0000E+00  0.1100E+00
    -28.223  0.0000E+00  0.1100E+00
    -28.016  0.0000E+00  0.1100E+00
    -27.809  0.0000E+00  0.1100E+00
    -27.601  0.0000E+00  0.1100E+00
    -27.394  0.0000E+00  0.1100E+00
    -27.186  0.9792E-12  0.1100E+00
    -26.979  0.1245E-01  0.1126E+00
    -26.771  0.6576E-01  0.1262E+00
    -26.564  0.1689E+00  0.1613E+00
    -26.356  0.1142E+00  0.1850E+00
    -26.149  0.2041E-03  0.1850E+00
    -25.941  0.0000E+00  0.1850E+00
    -25.734  0.0000E+00  0.1850E+00
    -25.526  0.0000E+00  0.1850E+00
    -25.319  0.0000E+00  0.1850E+00
    -25.111  0.0000E+00  0.1850E+00
    -24.904  0.0000E+00  0.1850E+00
    -24.697  0.0000E+00  0.1850E+00
    -24.489  0.0000E+00  0.1850E+00
    -24.282  0.0000E+00  0.1850E+00
    -24.074  0.0000E+00  0.1850E+00
    -23.867  0.0000E+00  0.1850E+00
    -23.659  0.0000E+00  0.1850E+00
    -23.452  0.0000E+00  0.1850E+00
    -23.244  0.0000E+00  0.1850E+00
    -23.037  0.0000E+00  0.1850E+00
    -22.829  0.0000E+00  0.1850E+00
    -22.622  0.0000E+00  0.1850E+00
    -22.414  0.0000E+00  0.1850E+00
    -22.207  0.0000E+00  0.1850E+00
    -21.999  0.0000E+00  0.1850E+00
    -21.792  0.0000E+00  0.1850E+00
    -21.585  0.0000E+00  0.1850E+00
    -21.377  0.0000E+00  0.1850E+00
    -21.170  0.0000E+00  0.1850E+00
    -20.962  0.0000E+00  0.1850E+00
    -20.755  0.0000E+00  0.1850E+00
    -20.547  0.0000E+00  0.1850E+00
    -20.340  0.0000E+00  0.1850E+00
    -20.132  0.0000E+00  0.1850E+00
    -19.925  0.0000E+00  0.1850E+00
    -19.717  0.0000E+00  0.1850E+00
    -19.510  0.0000E+00  0.1850E+00
    -19.302  0.0000E+00  0.1850E+00
    -19.095  0.0000E+00  0.1850E+00
    -18.887  0.0000E+00  0.1850E+00
    -18.680  0.0000E+00  0.1850E+00
    -18.473  0.0000E+00  0.1850E+00
    -18.265  0.0000E+00  0.1850E+00
    -18.058  0.0000E+00  0.1850E+00
    -17.850  0.0000E+00  0.1850E+00
    -17.643  0.0000E+00  0.1850E+00
    -17.435  0.0000E+00  0.1850E+00
    -17.228  0.0000E+00  0.1850E+00
    -17.020  0.0000E+00  0.1850E+00
    -16.813  0.0000E+00  0.1850E+00
    -16.605  0.0000E+00  0.1850E+00
    -16.398  0.0000E+00  0.1850E+00
    -16.190  0.0000E+00  0.1850E+00
    -15.983  0.0000E+00  0.1850E+00
    -15.775  0.0000E+00  0.1850E+00
    -15.568  0.0000E+00  0.1850E+00
    -15.361  0.0000E+00  0.1850E+00
    -15.153  0.0000E+00  0.1850E+00
    -14.946  0.0000E+00  0.1850E+00
    -14.738  0.0000E+00  0.1850E+00
    -14.531  0.0000E+00  0.1850E+00
    -14.323  0.0000E+00  0.1850E+00
    -14.116  0.0000E+00  0.1850E+00
    -13.908  0.3005E-06  0.1850E+00
    -13.701  0.2243E-01  0.1897E+00
    -13.493  0.1385E-01  0.1925E+00
    -13.286  0.5780E-01  0.2045E+00
    -13.078  0.1252E+00  0.2305E+00
    -12.871  0.1396E+00  0.2595E+00
    -12.663  0.1752E+00  0.2958E+00
    -12.456  0.1221E+00  0.3212E+00
    -12.249  0.1895E-01  0.3251E+00
    -12.041  0.6302E-01  0.3382E+00
    -11.834  0.3296E-01  0.3450E+00
    -11.626  0.3024E-06  0.3450E+00
    -11.419  0.0000E+00  0.3450E+00
    -11.211  0.0000E+00  0.3450E+00
    -11.004  0.0000E+00  0.3450E+00
    -10.796  0.0000E+00  0.3450E+00
    -10.589  0.0000E+00  0.3450E+00
    -10.381  0.0000E+00  0.3450E+00
    -10.174  0.0000E+00  0.3450E+00
     -9.966  0.0000E+00  0.3450E+00
     -9.759  0.0000E+00  0.3450E+00
     -9.551  0.0000E+00  0.3450E+00
     -9.344  0.0000E+00  0.3450E+00
     -9.136  0.0000E+00  0.3450E+00
     -8.929  0.0000E+00  0.3450E+00
     -8.722  0.0000E+00  0.3450E+00
     -8.514  0.0000E+00  0.3450E+00
     -8.307  0.0000E+00  0.3450E+00
     -8.099  0.0000E+00  0.3450E+00
     -7.892  0.0000E+00  0.3450E+00
     -7.684  0.0000E+00  0.3450E+00
     -7.477  0.0000E+00  0.3450E+00
     -7.269  0.0000E+00  0.3450E+00
     -7.062  0.0000E+00  0.3450E+00
     -6.854  0.0000E+00  0.3450E+00
     -6.647  0.0000E+00  0.3450E+00
     -6.439  0.0000E+00  0.3450E+00
     -6.232  0.0000E+00  0.3450E+00
     -6.024  0.0000E+00  0.3450E+00
     -5.817  0.0000E+00  0.3450E+00
     -5.610  0.0000E+00  0.3450E+00
     -5.402  0.0000E+00  0.3450E+00
     -5.195  0.0000E+00  0.3450E+00
     -4.987  0.0000E+00  0.3450E+00
     -4.780  0.0000E+00  0.3450E+00
     -4.572  0.0000E+00  0.3450E+00
     -4.365  0.0000E+00  0.3450E+00
     -4.157  0.0000E+00  0.3450E+00
     -3.950  0.0000E+00  0.3450E+00
     -3.742  0.0000E+00  0.3450E+00
     -3.535  0.1042E-11  0.3450E+00
     -3.327  0.1514E-02  0.3453E+00
     -3.120  0.2314E-01  0.3501E+00
     -2.912  0.5407E-01  0.3613E+00
     -2.705  0.7522E-01  0.3769E+00
     -2.498  0.1535E+00  0.4088E+00
     -2.290  0.1568E+00  0.4413E+00
     -2.083  0.1477E+00  0.4720E+00
     -1.875  0.1363E+00  0.5003E+00
     -1.668  0.1412E+00  0.5295E+00
     -1.460  0.1213E+00  0.5547E+00
     -1.253  0.1374E+00  0.5832E+00
     -1.045  0.1561E+00  0.6156E+00
     -0.838  0.1717E+00  0.6512E+00
     -0.630  0.1692E+00  0.6863E+00
     -0.423  0.1864E+00  0.7250E+00
     -0.215  0.1805E+00  0.7624E+00
     -0.008  0.1454E+00  0.7926E+00
      0.200  0.1267E+00  0.8189E+00
      0.407  0.2946E-01  0.8250E+00
      0.614  0.5892E-06  0.8250E+00
      0.822  0.0000E+00  0.8250E+00
      1.029  0.0000E+00  0.8250E+00
      1.237  0.0000E+00  0.8250E+00
      1.444  0.0000E+00  0.8250E+00
      1.652  0.0000E+00  0.8250E+00
      1.859  0.0000E+00  0.8250E+00
      2.067  0.0000E+00  0.8250E+00
      2.274  0.0000E+00  0.8250E+00
      2.482  0.0000E+00  0.8250E+00
      2.689  0.0000E+00  0.8250E+00
      2.897  0.0000E+00  0.8250E+00
      3.104  0.0000E+00  0.8250E+00
      3.312  0.6052E-15  0.8250E+00
      3.519  0.5404E-03  0.8251E+00
      3.726  0.5817E-01  0.8372E+00
      3.934  0.2230E-01  0.8418E+00
      4.141  0.1558E+00  0.8741E+00
      4.349  0.1213E+00  0.8993E+00
      4.556  0.3335E-02  0.9000E+00
      4.764  0.0000E+00  0.9000E+00
      4.971  0.3924E-06  0.9000E+00
      5.179  0.1641E-01  0.9034E+00
      5.386  0.3438E-01  0.9105E+00
      5.594  0.1009E+00  0.9315E+00
      5.801  0.8705E-01  0.9495E+00
      6.009  0.2278E-02  0.9500E+00
      6.216  0.2851E-08  0.9500E+00
      6.424  0.2606E-02  0.9505E+00
      6.631  0.4064E-03  0.9506E+00
      6.838  0.5166E-14  0.9506E+00
      7.046  0.8533E-03  0.9508E+00
      7.253  0.1941E-01  0.9548E+00
      7.461  0.2533E-01  0.9601E+00
      7.668  0.3966E-01  0.9683E+00
      7.876  0.4382E-01  0.9774E+00
      8.083  0.7721E-01  0.9934E+00
      8.291  0.2861E-01  0.9994E+00
      8.498  0.3087E-02  0.1000E+01
      8.706  0.2836E-06  0.1000E+01
      8.913  0.0000E+00  0.1000E+01
      9.121  0.0000E+00  0.1000E+01
      9.328  0.0000E+00  0.1000E+01
      9.536  0.0000E+00  0.1000E+01
      9.743  0.0000E+00  0.1000E+01
      9.950  0.0000E+00  0.1000E+01
     10.158  0.0000E+00  0.1000E+01
     10.365  0.0000E+00  0.1000E+01
     10.573  0.0000E+00  0.1000E+01
     10.780  0.0000E+00  0.1000E+01
     10.988  0.0000E+00  0.1000E+01
     11.195  0.0000E+00  0.1000E+01
     11.19529891    -51.04488220  301      0.64040153      1.00000000
    -51.045  0.0000E+00  0.0000E+00  0.0000E+00  0.0000E+00  0.0000E+00  0.0000E+00  0.0000E+00  0.0000E+00  0.0000E+00
    -50.837  0.0000E+00  0.0000E+00  0.0000E+00  0.0000E+00  0.0000E+00  0.0000E+00  0.0000E+00  0.0000E+00  0.0000E+00
    -50.630  0.0000E+00  0.0000E+00  0.0000E+00  0.0000E+00  0.0000E+00  0.0000E+00  0.0000E+00  0.0000E+00  0.0000E+00
    -50.422  0.0000E+00  0.0000E+00  0.0000E+00  0.0000E+00  0.0000E+00  0.0000E+00  0.0000E+00  0.0000E+00  0.0000E+00
    -50.215  0.0000E+00  0.0000E+00  0.0000E+00  0.0000E+00  0.0000E+00  0.0000E+00  0.0000E+00  0.0000E+00  0.0000E+00
    -50.008  0.0000E+00  0.0000E+00  0.0000E+00  0.0000E+00  0.0000E+00  0.0000E+00  0.0000E+00  0.0000E+00  0.0000E+00
    -49.800  0.0000E+00  0.0000E+00  0.0000E+00  0.0000E+00  0.0000E+00  0.0000E+00  0.0000E+00  0.0000E+00  0.0000E+00
    -49.593  0.0000E+00  0.0000E+00  0.0000E+00  0.0000E+00  0.0000E+00  0.0000E+00  0.0000E+00  0.0000E+00  0.0000E+00
    -49.385  0.0000E+00  0.0000E+00  0.0000E+00  0.0000E+00  0.0000E+00  0.0000E+00  0.0000E+00  0.0000E+00  0.0000E+00
    -49.178  0.0000E+00  0.0000E+00  0.0000E+00  0.0000E+00  0.0000E+00  0.0000E+00  0.0000E+00  0.0000E+00  0.0000E+00
    -48.970  0.0000E+00  0.0000E+00  0.0000E+00  0.0000E+00  0.0000E+00  0.0000E+00  0.0000E+00  0.0000E+00  0.0000E+00
    -48.763  0.0000E+00  0.0000E+00  0.0000E+00  0.0000E+00  0.0000E+00  0.0000E+00  0.0000E+00  0.0000E+00  0.0000E+00
    -48.555  0.0000E+00  0.0000E+00  0.0000E+00  0.0000E+00  0.0000E+00  0.0000E+00  0.0000E+00  0.0000E+00  0.0000E+00
    -48.348  0.2298E-12  0.1180E-13  0.5136E-14  0.6847E-13  0.0000E+00  0.0000E+00  0.0000E+00  0.0000E+00  0.0000E+00
    -48.140  0.2401E-08  0.1233E-09  0.5365E-10  0.7153E-09  0.0000E+00  0.0000E+00  0.0000E+00  0.0000E+00  0.0000E+00
    -47.933  0.1278E-08  0.5794E-10  0.8449E-10  0.9283E-10  0.0000E+00  0.0000E+00  0.0000E+00  0.0000E+00  0.0000E+00
    -47.725  0.4007E-08  0.7877E-09  0.1270E-09  0.1533E-09  0.0000E+00  0.0000E+00  0.0000E+00  0.0000E+00  0.0000E+00
    -47.518  0.4335E-09  0.1889E-10  0.2406E-10  0.1932E-10  0.0000E+00  0.0000E+00  0.0000E+00  0.0000E+00  0.0000E+00
    -47.310  0.0000E+00  0.0000E+00  0.0000E+00  0.0000E+00  0.0000E+00  0.0000E+00  0.0000E+00  0.0000E+00  0.0000E+00
    -47.103  0.0000E+00  0.0000E+00  0.0000E+00  0.0000E+00  0.0000E+00  0.0000E+00  0.0000E+00  0.0000E+00  0.0000E+00
    -46.896  0.0000E+00  0.0000E+00  0.0000E+00  0.0000E+00  0.0000E+00  0.0000E+00  0.0000E+00  0.0000E+00  0.0000E+00
    -46.688  0.0000E+00  0.0000E+00  0.0000E+00  0.0000E+00  0.0000E+00  0.0000E+00  0.0000E+00  0.0000E+00  0.0000E+00
    -46.481  0.0000E+00  0.0000E+00  0.0000E+00  0.0000E+00  0.0000E+00  0.0000E+00  0.0000E+00  0.0000E+00  0.0000E+00
    -46.273  0.0000E+00  0.0000E+00  0.0000E+00  0.0000E+00  0.0000E+00  0.0000E+00  0.0000E+00  0.0000E+00  0.0000E+00
    -46.066  0.0000E+00  0.0000E+00  0.0000E+00  0.0000E+00  0.0000E+00  0.0000E+00  0.0000E+00  0.0000E+00  0.0000E+00
    -45.858  0.0000E+00  0.0000E+00  0.0000E+00  0.0000E+00  0.0000E+00  0.0000E+00  0.0000E+00  0.0000E+00  0.0000E+00
    -45.651  0.0000E+00  0.0000E+00  0.0000E+00  0.0000E+00  0.0000E+00  0.0000E+00  0.0000E+00  0.0000E+00  0.0000E+00
    -45.443  0.0000E+00  0.0000E+00  0.0000E+00  0.0000E+00  0.0000E+00  0.0000E+00  0.0000E+00  0.0000E+00  0.0000E+00
    -45.236  0.0000E+00  0.0000E+00  0.0000E+00  0.0000E+00  0.0000E+00  0.0000E+00  0.0000E+00  0.0000E+00  0.0000E+00
    -45.028  0.0000E+00  0.0000E+00  0.0000E+00  0.0000E+00  0.0000E+00  0.0000E+00  0.0000E+00  0.0000E+00  0.0000E+00
    -44.821  0.0000E+00  0.0000E+00  0.0000E+00  0.0000E+00  0.0000E+00  0.0000E+00  0.0000E+00  0.0000E+00  0.0000E+00
    -44.613  0.0000E+00  0.0000E+00  0.0000E+00  0.0000E+00  0.0000E+00  0.0000E+00  0.0000E+00  0.0000E+00  0.0000E+00
    -44.406  0.0000E+00  0.0000E+00  0.0000E+00  0.0000E+00  0.0000E+00  0.0000E+00  0.0000E+00  0.0000E+00  0.0000E+00
    -44.198  0.0000E+00  0.0000E+00  0.0000E+00  0.0000E+00  0.0000E+00  0.0000E+00  0.0000E+00  0.0000E+00  0.0000E+00
    -43.991  0.0000E+00  0.0000E+00  0.0000E+00  0.0000E+00  0.0000E+00  0.0000E+00  0.0000E+00  0.0000E+00  0.0000E+00
    -43.784  0.0000E+00  0.0000E+00  0.0000E+00  0.0000E+00  0.0000E+00  0.0000E+00  0.0000E+00  0.0000E+00  0.0000E+00
    -43.576  0.0000E+00  0.0000E+00  0.0000E+00  0.0000E+00  0.0000E+00  0.0000E+00  0.0000E+00  0.0000E+00  0.0000E+00
    -43.369  0.0000E+00  0.0000E+00  0.0000E+00  0.0000E+00  0.0000E+00  0.0000E+00  0.0000E+00  0.0000E+00  0.0000E+00
    -43.161  0.2236E-13  0.4322E-14  0.3255E-14  0.1655E-14  0.0000E+00  0.0000E+00  0.0000E+00  0.0000E+00  0.0000E+00
    -42.954  0.1271E-06  0.5792E-09  0.4476E-09  0.2281E-09  0.0000E+00  0.0000E+00  0.0000E+00  0.0000E+00  0.0000E+00
    -42.746  0.5900E+01  0.4204E-05  0.7741E-05  0.1838E-06  0.0000E+00  0.0000E+00  0.0000E+00  0.0000E+00  0.0000E+00
    -42.539  0.3638E+01  0.2594E-05  0.4774E-05  0.1153E-06  0.0000E+00  0.0000E+00  0.0000E+00  0.0000E+00  0.0000E+00
    -42.331  0.5762E-06  0.3375E-08  0.1288E-07  0.7019E-08  0.0000E+00  0.0000E+00  0.0000E+00  0.0000E+00  0.0000E+00
    -42.124  0.8579E-07  0.2131E-08  0.3247E-08  0.1079E-08  0.0000E+00  0.0000E+00  0.0000E+00  0.0000E+00  0.0000E+00
    -41.916  0.5093E-11  0.2044E-12  0.6525E-13  0.7765E-13  0.0000E+00  0.0000E+00  0.0000E+00  0.0000E+00  0.0000E+00
    -41.709  0.0000E+00  0.0000E+00  0.0000E+00  0.0000E+00  0.0000E+00  0.0000E+00  0.0000E+00  0.0000E+00  0.0000E+00
    -41.501  0.0000E+00  0.0000E+00  0.0000E+00  0.0000E+00  0.0000E+00  0.0000E+00  0.0000E+00  0.0000E+00  0.0000E+00
    -41.294  0.0000E+00  0.0000E+00  0.0000E+00  0.0000E+00  0.0000E+00  0.0000E+00  0.0000E+00  0.0000E+00  0.0000E+00
    -41.086  0.0000E+00  0.0000E+00  0.0000E+00  0.0000E+00  0.0000E+00  0.0000E+00  0.0000E+00  0.0000E+00  0.0000E+00
    -40.879  0.0000E+00  0.0000E+00  0.0000E+00  0.0000E+00  0.0000E+00  0.0000E+00  0.0000E+00  0.0000E+00  0.0000E+00
    -40.672  0.0000E+00  0.0000E+00  0.0000E+00  0.0000E+00  0.0000E+00  0.0000E+00  0.0000E+00  0.0000E+00  0.0000E+00
    -40.464  0.0000E+00  0.0000E+00  0.0000E+00  0.0000E+00  0.0000E+00  0.0000E+00  0.0000E+00  0.0000E+00  0.0000E+00
    -40.257  0.0000E+00  0.0000E+00  0.0000E+00  0.0000E+00  0.0000E+00  0.0000E+00  0.0000E+00  0.0000E+00  0.0000E+00
    -40.049  0.0000E+00  0.0000E+00  0.0000E+00  0.0000E+00  0.0000E+00  0.0000E+00  0.0000E+00  0.0000E+00  0.0000E+00
    -39.842  0.0000E+00  0.0000E+00  0.0000E+00  0.0000E+00  0.0000E+00  0.0000E+00  0.0000E+00  0.0000E+00  0.0000E+00
    -39.634  0.0000E+00  0.0000E+00  0.0000E+00  0.0000E+00  0.0000E+00  0.0000E+00  0.0000E+00  0.0000E+00  0.0000E+00
    -39.427  0.0000E+00  0.0000E+00  0.0000E+00  0.0000E+00  0.0000E+00  0.0000E+00  0.0000E+00  0.0000E+00  0.0000E+00
    -39.219  0.0000E+00  0.0000E+00  0.0000E+00  0.0000E+00  0.0000E+00  0.0000E+00  0.0000E+00  0.0000E+00  0.0000E+00
    -39.012  0.0000E+00  0.0000E+00  0.0000E+00  0.0000E+00  0.0000E+00  0.0000E+00  0.0000E+00  0.0000E+00  0.0000E+00
    -38.804  0.0000E+00  0.0000E+00  0.0000E+00  0.0000E+00  0.0000E+00  0.0000E+00  0.0000E+00  0.0000E+00  0.0000E+00
    -38.597  0.0000E+00  0.0000E+00  0.0000E+00  0.0000E+00  0.0000E+00  0.0000E+00  0.0000E+00  0.0000E+00  0.0000E+00
    -38.389  0.0000E+00  0.0000E+00  0.0000E+00  0.0000E+00  0.0000E+00  0.0000E+00  0.0000E+00  0.0000E+00  0.0000E+00
    -38.182  0.0000E+00  0.0000E+00  0.0000E+00  0.0000E+00  0.0000E+00  0.0000E+00  0.0000E+00  0.0000E+00  0.0000E+00
    -37.974  0.0000E+00  0.0000E+00  0.0000E+00  0.0000E+00  0.0000E+00  0.0000E+00  0.0000E+00  0.0000E+00  0.0000E+00
    -37.767  0.0000E+00  0.0000E+00  0.0000E+00  0.0000E+00  0.0000E+00  0.0000E+00  0.0000E+00  0.0000E+00  0.0000E+00
    -37.560  0.0000E+00  0.0000E+00  0.0000E+00  0.0000E+00  0.0000E+00  0.0000E+00  0.0000E+00  0.0000E+00  0.0000E+00
    -37.352  0.0000E+00  0.0000E+00  0.0000E+00  0.0000E+00  0.0000E+00  0.0000E+00  0.0000E+00  0.0000E+00  0.0000E+00
    -37.145  0.0000E+00  0.0000E+00  0.0000E+00  0.0000E+00  0.0000E+00  0.0000E+00  0.0000E+00  0.0000E+00  0.0000E+00
    -36.937  0.0000E+00  0.0000E+00  0.0000E+00  0.0000E+00  0.0000E+00  0.0000E+00  0.0000E+00  0.0000E+00  0.0000E+00
    -36.730  0.0000E+00  0.0000E+00  0.0000E+00  0.0000E+00  0.0000E+00  0.0000E+00  0.0000E+00  0.0000E+00  0.0000E+00
    -36.522  0.0000E+00  0.0000E+00  0.0000E+00  0.0000E+00  0.0000E+00  0.0000E+00  0.0000E+00  0.0000E+00  0.0000E+00
    -36.315  0.0000E+00  0.0000E+00  0.0000E+00  0.0000E+00  0.0000E+00  0.0000E+00  0.0000E+00  0.0000E+00  0.0000E+00
    -36.107  0.0000E+00  0.0000E+00  0.0000E+00  0.0000E+00  0.0000E+00  0.0000E+00  0.0000E+00  0.0000E+00  0.0000E+00
    -35.900  0.0000E+00  0.0000E+00  0.0000E+00  0.0000E+00  0.0000E+00  0.0000E+00  0.0000E+00  0.0000E+00  0.0000E+00
    -35.692  0.0000E+00  0.0000E+00  0.0000E+00  0.0000E+00  0.0000E+00  0.0000E+00  0.0000E+00  0.0000E+00  0.0000E+00
    -35.485  0.0000E+00  0.0000E+00  0.0000E+00  0.0000E+00  0.0000E+00  0.0000E+00  0.0000E+00  0.0000E+00  0.0000E+00
    -35.277  0.0000E+00  0.0000E+00  0.0000E+00  0.0000E+00  0.0000E+00  0.0000E+00  0.0000E+00  0.0000E+00  0.0000E+00
    -35.070  0.0000E+00  0.0000E+00  0.0000E+00  0.0000E+00  0.0000E+00  0.0000E+00  0.0000E+00  0.0000E+00  0.0000E+00
    -34.862  0.0000E+00  0.0000E+00  0.0000E+00  0.0000E+00  0.0000E+00  0.0000E+00  0.0000E+00  0.0000E+00  0.0000E+00
    -34.655  0.0000E+00  0.0000E+00  0.0000E+00  0.0000E+00  0.0000E+00  0.0000E+00  0.0000E+00  0.0000E+00  0.0000E+00
    -34.448  0.0000E+00  0.0000E+00  0.0000E+00  0.0000E+00  0.0000E+00  0.0000E+00  0.0000E+00  0.0000E+00  0.0000E+00
    -34.240  0.0000E+00  0.0000E+00  0.0000E+00  0.0000E+00  0.0000E+00  0.0000E+00  0.0000E+00  0.0000E+00  0.0000E+00
    -34.033  0.0000E+00  0.0000E+00  0.0000E+00  0.0000E+00  0.0000E+00  0.0000E+00  0.0000E+00  0.0000E+00  0.0000E+00
    -33.825  0.0000E+00  0.0000E+00  0.0000E+00  0.0000E+00  0.0000E+00  0.0000E+00  0.0000E+00  0.0000E+00  0.0000E+00
    -33.618  0.0000E+00  0.0000E+00  0.0000E+00  0.0000E+00  0.0000E+00  0.0000E+00  0.0000E+00  0.0000E+00  0.0000E+00
    -33.410  0.0000E+00  0.0000E+00  0.0000E+00  0.0000E+00  0.0000E+00  0.0000E+00  0.0000E+00  0.0000E+00  0.0000E+00
    -33.203  0.0000E+00  0.0000E+00  0.0000E+00  0.0000E+00  0.0000E+00  0.0000E+00  0.0000E+00  0.0000E+00  0.0000E+00
    -32.995  0.0000E+00  0.0000E+00  0.0000E+00  0.0000E+00  0.0000E+00  0.0000E+00  0.0000E+00  0.0000E+00  0.0000E+00
    -32.788  0.0000E+00  0.0000E+00  0.0000E+00  0.0000E+00  0.0000E+00  0.0000E+00  0.0000E+00  0.0000E+00  0.0000E+00
    -32.580  0.0000E+00  0.0000E+00  0.0000E+00  0.0000E+00  0.0000E+00  0.0000E+00  0.0000E+00  0.0000E+00  0.0000E+00
    -32.373  0.0000E+00  0.0000E+00  0.0000E+00  0.0000E+00  0.0000E+00  0.0000E+00  0.0000E+00  0.0000E+00  0.0000E+00
    -32.165  0.0000E+00  0.0000E+00  0.0000E+00  0.0000E+00  0.0000E+00  0.0000E+00  0.0000E+00  0.0000E+00  0.0000E+00
    -31.958  0.0000E+00  0.0000E+00  0.0000E+00  0.0000E+00  0.0000E+00  0.0000E+00  0.0000E+00  0.0000E+00  0.0000E+00
    -31.750  0.0000E+00  0.0000E+00  0.0000E+00  0.0000E+00  0.0000E+00  0.0000E+00  0.0000E+00  0.0000E+00  0.0000E+00
    -31.543  0.0000E+00  0.0000E+00  0.0000E+00  0.0000E+00  0.0000E+00  0.0000E+00  0.0000E+00  0.0000E+00  0.0000E+00
    -31.335  0.0000E+00  0.0000E+00  0.0000E+00  0.0000E+00  0.0000E+00  0.0000E+00  0.0000E+00  0.0000E+00  0.0000E+00
    -31.128  0.0000E+00  0.0000E+00  0.0000E+00  0.0000E+00  0.0000E+00  0.0000E+00  0.0000E+00  0.0000E+00  0.0000E+00
    -30.921  0.0000E+00  0.0000E+00  0.0000E+00  0.0000E+00  0.0000E+00  0.0000E+00  0.0000E+00  0.0000E+00  0.0000E+00
    -30.713  0.0000E+00  0.0000E+00  0.0000E+00  0.0000E+00  0.0000E+00  0.0000E+00  0.0000E+00  0.0000E+00  0.0000E+00
    -30.506  0.0000E+00  0.0000E+00  0.0000E+00  0.0000E+00  0.0000E+00  0.0000E+00  0.0000E+00  0.0000E+00  0.0000E+00
    -30.298  0.0000E+00  0.0000E+00  0.0000E+00  0.0000E+00  0.0000E+00  0.0000E+00  0.0000E+00  0.0000E+00  0.0000E+00
    -30.091  0.0000E+00  0.0000E+00  0.0000E+00  0.0000E+00  0.0000E+00  0.0000E+00  0.0000E+00  0.0000E+00  0.0000E+00
    -29.883  0.0000E+00  0.0000E+00  0.0000E+00  0.0000E+00  0.0000E+00  0.0000E+00  0.0000E+00  0.0000E+00  0.0000E+00
    -29.676  0.0000E+00  0.0000E+00  0.0000E+00  0.0000E+00  0.0000E+00  0.0000E+00  0.0000E+00  0.0000E+00  0.0000E+00
    -29.468  0.0000E+00  0.0000E+00  0.0000E+00  0.0000E+00  0.0000E+00  0.0000E+00  0.0000E+00  0.0000E+00  0.0000E+00
    -29.261  0.0000E+00  0.0000E+00  0.0000E+00  0.0000E+00  0.0000E+00  0.0000E+00  0.0000E+00  0.0000E+00  0.0000E+00
    -29.053  0.0000E+00  0.0000E+00  0.0000E+00  0.0000E+00  0.0000E+00  0.0000E+00  0.0000E+00  0.0000E+00  0.0000E+00
    -28.846  0.0000E+00  0.0000E+00  0.0000E+00  0.0000E+00  0.0000E+00  0.0000E+00  0.0000E+00  0.0000E+00  0.0000E+00
    -28.638  0.0000E+00  0.0000E+00  0.0000E+00  0.0000E+00  0.0000E+00  0.0000E+00  0.0000E+00  0.0000E+00  0.0000E+00
    -28.431  0.0000E+00  0.0000E+00  0.0000E+00  0.0000E+00  0.0000E+00  0.0000E+00  0.0000E+00  0.0000E+00  0.0000E+00
    -28.223  0.0000E+00  0.0000E+00  0.0000E+00  0.0000E+00  0.0000E+00  0.0000E+00  0.0000E+00  0.0000E+00  0.0000E+00
    -28.016  0.0000E+00  0.0000E+00  0.0000E+00  0.0000E+00  0.0000E+00  0.0000E+00  0.0000E+00  0.0000E+00  0.0000E+00
    -27.809  0.0000E+00  0.0000E+00  0.0000E+00  0.0000E+00  0.0000E+00  0.0000E+00  0.0000E+00  0.0000E+00  0.0000E+00
    -27.601  0.0000E+00  0.0000E+00  0.0000E+00  0.0000E+00  0.0000E+00  0.0000E+00  0.0000E+00  0.0000E+00  0.0000E+00
    -27.394  0.0000E+00  0.0000E+00  0.0000E+00  0.0000E+00  0.0000E+00  0.0000E+00  0.0000E+00  0.0000E+00  0.0000E+00
    -27.186  0.5933E-18  0.3330E-19  0.2431E-19  0.3981E-19  0.0000E+00  0.0000E+00  0.0000E+00  0.0000E+00  0.0000E+00
    -26.979  0.5199E-07  0.1905E-08  0.1702E-08  0.3617E-08  0.0000E+00  0.0000E+00  0.0000E+00  0.0000E+00  0.0000E+00
    -26.771  0.3727E-06  0.1337E-07  0.1201E-07  0.2639E-07  0.0000E+00  0.0000E+00  0.0000E+00  0.0000E+00  0.0000E+00
    -26.564  0.4416E-06  0.2356E-07  0.1647E-07  0.2670E-07  0.0000E+00  0.0000E+00  0.0000E+00  0.0000E+00  0.0000E+00
    -26.356  0.4707E-06  0.2370E-07  0.3159E-07  0.1725E-07  0.0000E+00  0.0000E+00  0.0000E+00  0.0000E+00  0.0000E+00
    -26.149  0.1457E-08  0.4736E-10  0.1344E-09  0.5553E-10  0.0000E+00  0.0000E+00  0.0000E+00  0.0000E+00  0.0000E+00
    -25.941  0.0000E+00  0.0000E+00  0.0000E+00  0.0000E+00  0.0000E+00  0.0000E+00  0.0000E+00  0.0000E+00  0.0000E+00
    -25.734  0.0000E+00  0.0000E+00  0.0000E+00  0.0000E+00  0.0000E+00  0.0000E+00  0.0000E+00  0.0000E+00  0.0000E+00
    -25.526  0.0000E+00  0.0000E+00  0.0000E+00  0.0000E+00  0.0000E+00  0.0000E+00  0.0000E+00  0.0000E+00  0.0000E+00
    -25.319  0.0000E+00  0.0000E+00  0.0000E+00  0.0000E+00  0.0000E+00  0.0000E+00  0.0000E+00  0.0000E+00  0.0000E+00
    -25.111  0.0000E+00  0.0000E+00  0.0000E+00  0.0000E+00  0.0000E+00  0.0000E+00  0.0000E+00  0.0000E+00  0.0000E+00
    -24.904  0.0000E+00  0.0000E+00  0.0000E+00  0.0000E+00  0.0000E+00  0.0000E+00  0.0000E+00  0.0000E+00  0.0000E+00
    -24.697  0.0000E+00  0.0000E+00  0.0000E+00  0.0000E+00  0.0000E+00  0.0000E+00  0.0000E+00  0.0000E+00  0.0000E+00
    -24.489  0.0000E+00  0.0000E+00  0.0000E+00  0.0000E+00  0.0000E+00  0.0000E+00  0.0000E+00  0.0000E+00  0.0000E+00
    -24.282  0.0000E+00  0.0000E+00  0.0000E+00  0.0000E+00  0.0000E+00  0.0000E+00  0.0000E+00  0.0000E+00  0.0000E+00
    -24.074  0.0000E+00  0.0000E+00  0.0000E+00  0.0000E+00  0.0000E+00  0.0000E+00  0.0000E+00  0.0000E+00  0.0000E+00
    -23.867  0.0000E+00  0.0000E+00  0.0000E+00  0.0000E+00  0.0000E+00  0.0000E+00  0.0000E+00  0.0000E+00  0.0000E+00
    -23.659  0.0000E+00  0.0000E+00  0.0000E+00  0.0000E+00  0.0000E+00  0.0000E+00  0.0000E+00  0.0000E+00  0.0000E+00
    -23.452  0.0000E+00  0.0000E+00  0.0000E+00  0.0000E+00  0.0000E+00  0.0000E+00  0.0000E+00  0.0000E+00  0.0000E+00
    -23.244  0.0000E+00  0.0000E+00  0.0000E+00  0.0000E+00  0.0000E+00  0.0000E+00  0.0000E+00  0.0000E+00  0.0000E+00
    -23.037  0.0000E+00  0.0000E+00  0.0000E+00  0.0000E+00  0.0000E+00  0.0000E+00  0.0000E+00  0.0000E+00  0.0000E+00
    -22.829  0.0000E+00  0.0000E+00  0.0000E+00  0.0000E+00  0.0000E+00  0.0000E+00  0.0000E+00  0.0000E+00  0.0000E+00
    -22.622  0.0000E+00  0.0000E+00  0.0000E+00  0.0000E+00  0.0000E+00  0.0000E+00  0.0000E+00  0.0000E+00  0.0000E+00
    -22.414  0.0000E+00  0.0000E+00  0.0000E+00  0.0000E+00  0.0000E+00  0.0000E+00  0.0000E+00  0.0000E+00  0.0000E+00
    -22.207  0.0000E+00  0.0000E+00  0.0000E+00  0.0000E+00  0.0000E+00  0.0000E+00  0.0000E+00  0.0000E+00  0.0000E+00
    -21.999  0.0000E+00  0.0000E+00  0.0000E+00  0.0000E+00  0.0000E+00  0.0000E+00  0.0000E+00  0.0000E+00  0.0000E+00
    -21.792  0.0000E+00  0.0000E+00  0.0000E+00  0.0000E+00  0.0000E+00  0.0000E+00  0.0000E+00  0.0000E+00  0.0000E+00
    -21.585  0.0000E+00  0.0000E+00  0.0000E+00  0.0000E+00  0.0000E+00  0.0000E+00  0.0000E+00  0.0000E+00  0.0000E+00
    -21.377  0.0000E+00  0.0000E+00  0.0000E+00  0.0000E+00  0.0000E+00  0.0000E+00  0.0000E+00  0.0000E+00  0.0000E+00
    -21.170  0.0000E+00  0.0000E+00  0.0000E+00  0.0000E+00  0.0000E+00  0.0000E+00  0.0000E+00  0.0000E+00  0.0000E+00
    -20.962  0.0000E+00  0.0000E+00  0.0000E+00  0.0000E+00  0.0000E+00  0.0000E+00  0.0000E+00  0.0000E+00  0.0000E+00
    -20.755  0.0000E+00  0.0000E+00  0.0000E+00  0.0000E+00  0.0000E+00  0.0000E+00  0.0000E+00  0.0000E+00  0.0000E+00
    -20.547  0.0000E+00  0.0000E+00  0.0000E+00  0.0000E+00  0.0000E+00  0.0000E+00  0.0000E+00  0.0000E+00  0.0000E+00
    -20.340  0.0000E+00  0.0000E+00  0.0000E+00  0.0000E+00  0.0000E+00  0.0000E+00  0.0000E+00  0.0000E+00  0.0000E+00
    -20.132  0.0000E+00  0.0000E+00  0.0000E+00  0.0000E+00  0.0000E+00  0.0000E+00  0.0000E+00  0.0000E+00  0.0000E+00
    -19.925  0.0000E+00  0.0000E+00  0.0000E+00  0.0000E+00  0.0000E+00  0.0000E+00  0.0000E+00  0.0000E+00  0.0000E+00
    -19.717  0.0000E+00  0.0000E+00  0.0000E+00  0.0000E+00  0.0000E+00  0.0000E+00  0.0000E+00  0.0000E+00  0.0000E+00
    -19.510  0.0000E+00  0.0000E+00  0.0000E+00  0.0000E+00  0.0000E+00  0.0000E+00  0.0000E+00  0.0000E+00  0.0000E+00
    -19.302  0.0000E+00  0.0000E+00  0.0000E+00  0.0000E+00  0.0000E+00  0.0000E+00  0.0000E+00  0.0000E+00  0.0000E+00
    -19.095  0.0000E+00  0.0000E+00  0.0000E+00  0.0000E+00  0.0000E+00  0.0000E+00  0.0000E+00  0.0000E+00  0.0000E+00
    -18.887  0.0000E+00  0.0000E+00  0.0000E+00  0.0000E+00  0.0000E+00  0.0000E+00  0.0000E+00  0.0000E+00  0.0000E+00
    -18.680  0.0000E+00  0.0000E+00  0.0000E+00  0.0000E+00  0.0000E+00  0.0000E+00  0.0000E+00  0.0000E+00  0.0000E+00