 running on  256 total cores
 distrk:  each k-point on  128 cores,    2 groups
 distr:  one band on   32 cores,    4 groups
 using from now: INCAR     
 vasp.5.4.4.18Apr17-6-g9f103f2a35 (build May 17 2021 09:35:58) complex           
 POSCAR found type information on POSCAR  Li Sc Cl
 POSCAR found :  3 types and      54 ions
 scaLAPACK will be used

 ----------------------------------------------------------------------------- 
|                                                                             |
|           W    W    AA    RRRRR   N    N  II  N    N   GGGG   !!!           |
|           W    W   A  A   R    R  NN   N  II  NN   N  G    G  !!!           |
|           W    W  A    A  R    R  N N  N  II  N N  N  G       !!!           |
|           W WW W  AAAAAA  RRRRR   N  N N  II  N  N N  G  GGG   !            |
|           WW  WW  A    A  R   R   N   NN  II  N   NN  G    G                |
|           W    W  A    A  R    R  N    N  II  N    N   GGGG   !!!           |
|                                                                             |
|      You have enabled k-point parallelism (KPAR>1).                         |
|      This developmental code was originally  written by Paul Kent at ORNL,  |
|      and carefully double checked in Vienna.                                |
|      GW as well as linear response parallelism added by Martijn Marsman     |
|      and Georg Kresse.                                                      |
|      Carefully verify results versus KPAR=1.                                |
|      Report problems to Paul Kent and Vienna.                               |
|                                                                             |
 ----------------------------------------------------------------------------- 


 ----------------------------------------------------------------------------- 
|                                                                             |
|           W    W    AA    RRRRR   N    N  II  N    N   GGGG   !!!           |
|           W    W   A  A   R    R  NN   N  II  NN   N  G    G  !!!           |
|           W    W  A    A  R    R  N N  N  II  N N  N  G       !!!           |
|           W WW W  AAAAAA  RRRRR   N  N N  II  N  N N  G  GGG   !            |
|           WW  WW  A    A  R   R   N   NN  II  N   NN  G    G                |
|           W    W  A    A  R    R  N    N  II  N    N   GGGG   !!!           |
|                                                                             |
|     The real-space-projection scheme for the treatment of the nonlocal      |
|     pseudopotentials has been switched on -- but on file POTCAR I have      |
|     not found any entries signalling me that you have ever performed a      |
|     real-space optimization of all nonlocal projectors! BE WARNED that      |
|     a calculation using the real-space-projection scheme together with      |
|     nonlocal projectors which were not real-space-optimized (according      |
|     to the plane-wave-cutoff used in this calculation) might give more      |
|     or less inaccurate results                                              |
|     I hope you know what you are doing                                      |
|                                                                             |
 ----------------------------------------------------------------------------- 


 ----------------------------------------------------------------------------- 
|                                                                             |
|  ADVICE TO THIS USER RUNNING 'VASP/VAMP'   (HEAR YOUR MASTER'S VOICE ...):  |
|                                                                             |
|      You enforced a specific xc-type in the INCAR file,                     |
|      a different type was found on the POTCAR file                          |
|          I HOPE YOU KNOW, WHAT YOU ARE  DOING                               |
|                                                                             |
 ----------------------------------------------------------------------------- 

 LDA part: xc-table for Pade appr. of Perdew
 POSCAR found type information on POSCAR  Li Sc Cl
 POSCAR found :  3 types and      54 ions
 POSCAR, INCAR and KPOINTS ok, starting setup
 FFT: planning ...
 WAVECAR not read
 entering main loop
       N       E                     dE             d eps       ncg     rms          rms(c)
DAV:   1     0.482375831140E+04    0.48238E+04   -0.15006E+05  3200   0.188E+03
DAV:   2     0.602658909195E+03   -0.42211E+04   -0.41055E+04  3528   0.512E+02
DAV:   3    -0.132709864983E+03   -0.73537E+03   -0.69051E+03  4400   0.206E+02
DAV:   4    -0.232873991139E+03   -0.10016E+03   -0.99757E+02  5360   0.841E+01
DAV:   5    -0.245291288168E+03   -0.12417E+02   -0.12386E+02  6272   0.320E+01    0.263E+01
DAV:   6    -0.233906539953E+03    0.11385E+02   -0.54885E+01  5624   0.270E+01    0.132E+01
DAV:   7    -0.233630854562E+03    0.27569E+00   -0.11074E+01  5976   0.101E+01    0.654E+00
DAV:   8    -0.233685948429E+03   -0.55094E-01   -0.22665E+00  5472   0.527E+00    0.262E+00
DAV:   9    -0.233674980897E+03    0.10968E-01   -0.42058E-01  5312   0.292E+00    0.156E+00
DAV:  10    -0.233663527165E+03    0.11454E-01   -0.11866E-01  5376   0.178E+00    0.706E-01
DAV:  11    -0.233660871336E+03    0.26558E-02   -0.24624E-02  5432   0.690E-01    0.237E-01
DAV:  12    -0.233661646582E+03   -0.77525E-03   -0.83696E-03  6280   0.291E-01    0.164E-01
DAV:  13    -0.233661687912E+03   -0.41330E-04   -0.20118E-03  4856   0.223E-01    0.817E-02
DAV:  14    -0.233661735882E+03   -0.47970E-04   -0.73505E-04  5872   0.808E-02    0.386E-02
DAV:  15    -0.233661747133E+03   -0.11251E-04   -0.10545E-04  5624   0.332E-02    0.162E-02
DAV:  16    -0.233661749466E+03   -0.23330E-05   -0.36756E-05  4048   0.217E-02    0.120E-02
DAV:  17    -0.233661750827E+03   -0.13604E-05   -0.29832E-05  4856   0.120E-02    0.859E-03
DAV:  18    -0.233661751111E+03   -0.28392E-06   -0.28525E-06  2744   0.495E-03
   1 F= -.23366175E+03 E0= -.23366175E+03  d E =-.233662E+03
 curvature:   0.00 expect dE= 0.000E+00 dE for cont linesearch  0.000E+00
 trial: gam= 0.00000 g(F)=  0.197E+00 g(S)=  0.772E-02 ort = 0.000E+00 (trialstep = 0.100E+01)
 search vector abs. value=  0.204E+00
 bond charge predicted
       N       E                     dE             d eps       ncg     rms          rms(c)
DAV:   1    -0.233380595981E+03    0.28115E+00   -0.20304E+01  3632   0.232E+01    0.200E+00
DAV:   2    -0.233785082763E+03   -0.40449E+00   -0.48233E+00  4152   0.522E+00    0.112E+00
DAV:   3    -0.233783806453E+03    0.12763E-02   -0.17973E-01  4952   0.117E+00    0.773E-01
DAV:   4    -0.233778630854E+03    0.51756E-02   -0.16714E-02  5080   0.362E-01    0.377E-01
DAV:   5    -0.233777209980E+03    0.14209E-02   -0.55104E-03  4600   0.188E-01    0.159E-01
DAV:   6    -0.233777186597E+03    0.23384E-04   -0.14181E-03  5544   0.985E-02    0.149E-01
DAV:   7    -0.233777157755E+03    0.28841E-04   -0.42281E-04  5208   0.493E-02    0.761E-02
DAV:   8    -0.233777138724E+03    0.19031E-04   -0.58623E-05  5640   0.215E-02    0.383E-02
DAV:   9    -0.233777129676E+03    0.90482E-05   -0.31292E-05  4680   0.139E-02    0.176E-02
DAV:  10    -0.233777130641E+03   -0.96431E-06   -0.51285E-06  3240   0.647E-03
   2 F= -.23377713E+03 E0= -.23377713E+03  d E =-.115380E+00
 trial-energy change:   -0.115380  1 .order   -0.111999   -0.204326   -0.019671
 step:   1.0951(harm=  1.1065)  dis= 0.04322  next Energy=  -233.778069 (dE=-0.116E+00)
 bond charge predicted
       N       E                     dE             d eps       ncg     rms          rms(c)
DAV:   1    -0.233774649228E+03    0.24804E-02   -0.18228E-01  3960   0.221E+00    0.221E-01
DAV:   2    -0.233778160772E+03   -0.35115E-02   -0.41882E-02  4040   0.471E-01    0.987E-02
DAV:   3    -0.233778177879E+03   -0.17107E-04   -0.17845E-03  5152   0.118E-01    0.678E-02
DAV:   4    -0.233778132465E+03    0.45414E-04   -0.15000E-04  4960   0.337E-02    0.300E-02
DAV:   5    -0.233778120332E+03    0.12133E-04   -0.45297E-05  4600   0.174E-02    0.137E-02
DAV:   6    -0.233778118232E+03    0.21003E-05   -0.96831E-06  4504   0.871E-03    0.133E-02
DAV:   7    -0.233778116868E+03    0.13635E-05   -0.20064E-06  2280   0.467E-03    0.660E-03
DAV:   8    -0.233778115307E+03    0.15614E-05   -0.10514E-06  2096   0.528E-03    0.236E-03
DAV:   9    -0.233778115270E+03    0.37242E-07   -0.80881E-07  1984   0.419E-03
   3 F= -.23377812E+03 E0= -.23377812E+03  d E =-.116364E+00
 curvature:  -0.55 expect dE=-0.243E-01 dE for cont linesearch -0.180E-05
 trial: gam= 0.21374 g(F)=  0.421E-01 g(S)=  0.235E-02 ort = 0.820E-03 (trialstep = 0.102E+01)
 search vector abs. value=  0.542E-01
 bond charge predicted
       N       E                     dE             d eps       ncg     rms          rms(c)
DAV:   1    -0.233766690482E+03    0.11425E-01   -0.72701E+00  3328   0.930E+00    0.891E-01
DAV:   2    -0.233817677126E+03   -0.50987E-01   -0.59392E-01  4280   0.233E+00    0.421E-01
DAV:   3    -0.233817068892E+03    0.60823E-03   -0.23553E-02  5760   0.473E-01    0.323E-01
DAV:   4    -0.233816475708E+03    0.59318E-03   -0.24320E-03  5680   0.153E-01    0.141E-01
DAV:   5    -0.233816240234E+03    0.23547E-03   -0.10350E-03  4912   0.898E-02    0.456E-02
DAV:   6    -0.233816263022E+03   -0.22788E-04   -0.21908E-04  4840   0.351E-02    0.438E-02
DAV:   7    -0.233816267524E+03   -0.45021E-05   -0.35220E-05  5928   0.146E-02    0.213E-02
DAV:   8    -0.233816269710E+03   -0.21863E-05   -0.36444E-06  2896   0.772E-03    0.115E-02
DAV:   9    -0.233816270411E+03   -0.70089E-06   -0.20018E-06  2008   0.642E-03
   4 F= -.23381627E+03 E0= -.23381627E+03  d E =-.381551E-01
 trial-energy change:   -0.038155  1 .order   -0.037649   -0.045517   -0.029781
 step:   2.3529(harm=  2.9475)  dis= 0.03219  next Energy=  -233.836898 (dE=-0.588E-01)
 bond charge predicted
       N       E                     dE             d eps       ncg     rms          rms(c)
DAV:   1    -0.233756047082E+03    0.60223E-01   -0.12482E+01  3328   0.122E+01    0.116E+00
DAV:   2    -0.233842951850E+03   -0.86905E-01   -0.10106E+00  4280   0.308E+00    0.573E-01
DAV:   3    -0.233842153553E+03    0.79830E-03   -0.41516E-02  5848   0.627E-01    0.440E-01
DAV:   4    -0.233841112030E+03    0.10415E-02   -0.40672E-03  5632   0.201E-01    0.199E-01
DAV:   5    -0.233840660422E+03    0.45161E-03   -0.19305E-03  4976   0.124E-01    0.621E-02
DAV:   6    -0.233840698102E+03   -0.37680E-04   -0.40005E-04  4816   0.469E-02    0.592E-02
DAV:   7    -0.233840704172E+03   -0.60706E-05   -0.64229E-05  5992   0.197E-02    0.295E-02
DAV:   8    -0.233840706755E+03   -0.25824E-05   -0.11021E-05  4504   0.107E-02    0.181E-02
DAV:   9    -0.233840707205E+03   -0.45069E-06   -0.24782E-06  2160   0.606E-03
   5 F= -.23384071E+03 E0= -.23384071E+03  d E =-.625919E-01
 curvature:  -1.62 expect dE=-0.548E-01 dE for cont linesearch -0.180E-02
 ZBRENT: extrapolating
 opt :   2.8348  next Energy=  -233.842576 (dE=-0.645E-01)
 bond charge predicted
       N       E                     dE             d eps       ncg     rms          rms(c)
DAV:   1    -0.233831667430E+03    0.90393E-02   -0.16302E+00  3336   0.443E+00    0.418E-01
DAV:   2    -0.233843210530E+03   -0.11543E-01   -0.13423E-01  4344   0.110E+00    0.201E-01
DAV:   3    -0.233843036779E+03    0.17375E-03   -0.48453E-03  5768   0.216E-01    0.156E-01
DAV:   4    -0.233842899297E+03    0.13748E-03   -0.52271E-04  5680   0.701E-02    0.702E-02
DAV:   5    -0.233842843071E+03    0.56225E-04   -0.25277E-04  4960   0.441E-02    0.222E-02
DAV:   6    -0.233842849862E+03   -0.67902E-05   -0.53308E-05  4792   0.172E-02    0.215E-02
DAV:   7    -0.233842851785E+03   -0.19235E-05   -0.67879E-06  3600   0.723E-03    0.107E-02
DAV:   8    -0.233842853000E+03   -0.12150E-05   -0.17509E-06  2096   0.525E-03    0.559E-03
DAV:   9    -0.233842853308E+03   -0.30843E-06   -0.99468E-07  1984   0.574E-03
   6 F= -.23384285E+03 E0= -.23384285E+03  d E =-.647380E-01
 curvature:  -1.68 expect dE=-0.756E-01 dE for cont linesearch -0.511E-04
 trial: gam= 0.97539 g(F)=  0.403E-01 g(S)=  0.462E-02 ort = 0.128E-02 (trialstep = 0.757E+00)
 search vector abs. value=  0.990E-01
 bond charge predicted
       N       E                     dE             d eps       ncg     rms          rms(c)
DAV:   1    -0.233825866305E+03    0.16987E-01   -0.73346E+00  3424   0.925E+00    0.887E-01
DAV:   2    -0.233874693921E+03   -0.48828E-01   -0.60129E-01  4232   0.223E+00    0.422E-01
DAV:   3    -0.233873686792E+03    0.10071E-02   -0.23997E-02  5784   0.461E-01    0.333E-01
DAV:   4    -0.233872879890E+03    0.80690E-03   -0.26331E-03  5360   0.176E-01    0.142E-01
DAV:   5    -0.233872603238E+03    0.27665E-03   -0.10624E-03  5072   0.868E-02    0.537E-02
DAV:   6    -0.233872604776E+03   -0.15378E-05   -0.18488E-04  5424   0.323E-02    0.413E-02
DAV:   7    -0.233872601518E+03    0.32584E-05   -0.31818E-05  5616   0.146E-02    0.188E-02
DAV:   8    -0.233872598299E+03    0.32184E-05   -0.33725E-06  2784   0.714E-03    0.100E-02
DAV:   9    -0.233872597287E+03    0.10125E-05   -0.17830E-06  1984   0.662E-03    0.520E-03
DAV:  10    -0.233872597450E+03   -0.16327E-06   -0.14533E-06  1984   0.559E-03
   7 F= -.23387260E+03 E0= -.23387260E+03  d E =-.297441E-01
 trial-energy change:   -0.029744  1 .order   -0.029527   -0.034941   -0.024112
 step:   2.0296(harm=  2.4412)  dis= 0.02954  next Energy=  -233.893920 (dE=-0.511E-01)
 bond charge predicted
       N       E                     dE             d eps       ncg     rms          rms(c)
DAV:   1    -0.233764466510E+03    0.10813E+00   -0.20706E+01  3408   0.155E+01    0.150E+00
DAV:   2    -0.233901138969E+03   -0.13667E+00   -0.16859E+00  4200   0.376E+00    0.714E-01
DAV:   3    -0.233899144533E+03    0.19944E-02   -0.75155E-02  5776   0.798E-01    0.564E-01
DAV:   4    -0.233896909471E+03    0.22351E-02   -0.75564E-03  5368   0.307E-01    0.242E-01
DAV:   5    -0.233896130926E+03    0.77855E-03   -0.30562E-03  5064   0.147E-01    0.897E-02
DAV:   6    -0.233896151763E+03   -0.20837E-04   -0.54935E-04  5520   0.549E-02    0.675E-02
DAV:   7    -0.233896148735E+03    0.30275E-05   -0.87827E-05  5728   0.247E-02    0.308E-02
DAV:   8    -0.233896143574E+03    0.51609E-05   -0.12715E-05  4912   0.116E-02    0.170E-02
DAV:   9    -0.233896142348E+03    0.12266E-05   -0.55285E-06  3096   0.750E-03    0.675E-03
DAV:  10    -0.233896142488E+03   -0.14016E-06   -0.16969E-06  2128   0.477E-03
   8 F= -.23389614E+03 E0= -.23389614E+03  d E =-.532892E-01
 curvature:  -2.46 expect dE=-0.394E-01 dE for cont linesearch -0.515E-03
 ZBRENT: extrapolating
 opt :   2.2417  next Energy=  -233.896625 (dE=-0.538E-01)
 bond charge predicted
       N       E                     dE             d eps       ncg     rms          rms(c)
DAV:   1    -0.233893072184E+03    0.30702E-02   -0.57684E-01  3384   0.258E+00    0.251E-01
DAV:   2    -0.233896843556E+03   -0.37714E-02   -0.46526E-02  4304   0.632E-01    0.119E-01
DAV:   3    -0.233896752786E+03    0.90770E-04   -0.17672E-03  5808   0.127E-01    0.921E-02
DAV:   4    -0.233896689004E+03    0.63782E-04   -0.20846E-04  5496   0.476E-02    0.380E-02
DAV:   5    -0.233896666621E+03    0.22383E-04   -0.75031E-05  5064   0.233E-02    0.148E-02
DAV:   6    -0.233896664305E+03    0.23159E-05   -0.12892E-05  4656   0.880E-03    0.115E-02
DAV:   7    -0.233896662746E+03    0.15595E-05   -0.14589E-06  1984   0.459E-03    0.563E-03
DAV:   8    -0.233896661950E+03    0.79523E-06   -0.70076E-07  1984   0.495E-03
   9 F= -.23389666E+03 E0= -.23389666E+03  d E =-.538086E-01
 curvature:  -2.31 expect dE=-0.437E-01 dE for cont linesearch -0.921E-06
 trial: gam= 0.54948 g(F)=  0.186E-01 g(S)=  0.281E-03 ort = 0.199E-03 (trialstep = 0.105E+01)
 search vector abs. value=  0.490E-01
 bond charge predicted
       N       E                     dE             d eps       ncg     rms          rms(c)
DAV:   1    -0.233866278727E+03    0.30384E-01   -0.69777E+00  3368   0.880E+00    0.866E-01
DAV:   2    -0.233914802007E+03   -0.48523E-01   -0.57878E-01  4224   0.220E+00    0.394E-01
DAV:   3    -0.233914141884E+03    0.66012E-03   -0.23087E-02  5824   0.446E-01    0.319E-01
DAV:   4    -0.233913464257E+03    0.67763E-03   -0.23844E-03  5504   0.160E-01    0.143E-01
DAV:   5    -0.233913190124E+03    0.27413E-03   -0.10210E-03  4960   0.831E-02    0.542E-02
DAV:   6    -0.233913193283E+03   -0.31589E-05   -0.20499E-04  5168   0.334E-02    0.378E-02
DAV:   7    -0.233913189207E+03    0.40767E-05   -0.39511E-05  5808   0.159E-02    0.172E-02
DAV:   8    -0.233913185635E+03    0.35713E-05   -0.47998E-06  3480   0.831E-03    0.100E-02
DAV:   9    -0.233913184445E+03    0.11903E-05   -0.17966E-06  2048   0.597E-03    0.550E-03
DAV:  10    -0.233913184483E+03   -0.38322E-07   -0.17609E-06  2112   0.550E-03
  10 F= -.23391318E+03 E0= -.23391318E+03  d E =-.165225E-01
 trial-energy change:   -0.016523  1 .order   -0.016366   -0.020060   -0.012673
 step:   2.4489(harm=  2.8610)  dis= 0.03373  next Energy=  -233.921939 (dE=-0.253E-01)
 bond charge predicted
       N       E                     dE             d eps       ncg     rms          rms(c)
DAV:   1    -0.233840661916E+03    0.72523E-01   -0.12225E+01  3392   0.116E+01    0.114E+00
DAV:   2    -0.233924973779E+03   -0.84312E-01   -0.10062E+00  4216   0.289E+00    0.524E-01
DAV:   3    -0.233924000101E+03    0.97368E-03   -0.41847E-02  5816   0.594E-01    0.427E-01
DAV:   4    -0.233922874317E+03    0.11258E-02   -0.40929E-03  5560   0.217E-01    0.193E-01
DAV:   5    -0.233922364628E+03    0.50969E-03   -0.18369E-03  4920   0.111E-01    0.725E-02
DAV:   6    -0.233922377211E+03   -0.12583E-04   -0.39192E-04  5136   0.455E-02    0.494E-02
DAV:   7    -0.233922372546E+03    0.46655E-05   -0.73480E-05  5968   0.217E-02    0.223E-02
DAV:   8    -0.233922368035E+03    0.45105E-05   -0.95162E-06  4488   0.109E-02    0.135E-02
DAV:   9    -0.233922366591E+03    0.14438E-05   -0.34813E-06  2704   0.659E-03    0.678E-03
DAV:  10    -0.233922366297E+03    0.29464E-06   -0.16417E-06  2136   0.538E-03
  11 F= -.23392237E+03 E0= -.23392237E+03  d E =-.257043E-01
 curvature:  -3.49 expect dE=-0.727E-01 dE for cont linesearch -0.123E-03
 trial: gam= 1.03413 g(F)=  0.195E-01 g(S)=  0.130E-02 ort = 0.131E-02 (trialstep = 0.860E+00)
 search vector abs. value=  0.760E-01
 bond charge predicted
       N       E                     dE             d eps       ncg     rms          rms(c)
DAV:   1    -0.233896326319E+03    0.26040E-01   -0.75190E+00  3328   0.819E+00    0.848E-01
DAV:   2    -0.233939075394E+03   -0.42749E-01   -0.47645E-01  4400   0.215E+00    0.363E-01
DAV:   3    -0.233939114964E+03   -0.39570E-04   -0.20631E-02  5872   0.410E-01    0.283E-01
DAV:   4    -0.233938836638E+03    0.27833E-03   -0.18168E-03  5688   0.131E-01    0.132E-01
DAV:   5    -0.233938635014E+03    0.20162E-03   -0.90758E-04  4856   0.799E-02    0.463E-02
DAV:   6    -0.233938661629E+03   -0.26615E-04   -0.28605E-04  4800   0.374E-02    0.329E-02
DAV:   7    -0.233938659138E+03    0.24904E-05   -0.45715E-05  5272   0.143E-02    0.181E-02
DAV:   8    -0.233938659575E+03   -0.43694E-06   -0.74902E-06  3912   0.809E-03
  12 F= -.23393866E+03 E0= -.23393866E+03  d E =-.162933E-01
 trial-energy change:   -0.016293  1 .order   -0.015688   -0.019067   -0.012309
 step:   1.6350(harm=  2.4269)  dis= 0.03058  next Energy=  -233.944645 (dE=-0.223E-01)
 bond charge predicted
       N       E                     dE             d eps       ncg     rms          rms(c)
DAV:   1    -0.233911064321E+03    0.27595E-01   -0.61076E+00  3328   0.739E+00    0.747E-01
DAV:   2    -0.233945427573E+03   -0.34363E-01   -0.38277E-01  4424   0.194E+00    0.337E-01
DAV:   3    -0.233945548679E+03   -0.12111E-03   -0.17341E-02  5864   0.376E-01    0.260E-01
DAV:   4    -0.233945322582E+03    0.22610E-03   -0.14881E-03  5776   0.121E-01    0.124E-01
DAV:   5    -0.233945154382E+03    0.16820E-03   -0.79009E-04  4768   0.742E-02    0.428E-02
DAV:   6    -0.233945177659E+03   -0.23278E-04   -0.25245E-04  4736   0.348E-02    0.303E-02
DAV:   7    -0.233945175588E+03    0.20711E-05   -0.34883E-05  5352   0.126E-02    0.170E-02
DAV:   8    -0.233945175713E+03   -0.12474E-06   -0.50553E-06  3576   0.704E-03
  13 F= -.23394518E+03 E0= -.23394518E+03  d E =-.228094E-01
 curvature:  -3.10 expect dE=-0.488E-01 dE for cont linesearch -0.312E-03
 trial: gam= 0.42520 g(F)=  0.154E-01 g(S)=  0.348E-03 ort = 0.277E-02 (trialstep = 0.102E+01)
 search vector abs. value=  0.319E-01
 bond charge predicted
       N       E                     dE             d eps       ncg     rms          rms(c)
DAV:   1    -0.233926037696E+03    0.19138E-01   -0.44418E+00  3328   0.754E+00    0.624E-01
DAV:   2    -0.233957560798E+03   -0.31523E-01   -0.35420E-01  4344   0.178E+00    0.259E-01
DAV:   3    -0.233957413418E+03    0.14738E-03   -0.12867E-02  5824   0.350E-01    0.207E-01
DAV:   4    -0.233957181160E+03    0.23226E-03   -0.10957E-03  5608   0.101E-01    0.999E-02
DAV:   5    -0.233957018275E+03    0.16289E-03   -0.60000E-04  4280   0.703E-02    0.376E-02
DAV:   6    -0.233957036927E+03   -0.18652E-04   -0.23931E-04  4792   0.355E-02    0.356E-02
DAV:   7    -0.233957032786E+03    0.41411E-05   -0.46633E-05  4584   0.151E-02    0.209E-02
DAV:   8    -0.233957033149E+03   -0.36308E-06   -0.91359E-06  4104   0.959E-03
  14 F= -.23395703E+03 E0= -.23395703E+03  d E =-.118574E-01
 trial-energy change:   -0.011857  1 .order   -0.011662   -0.017207   -0.006118
 step:   1.4997(harm=  1.5753)  dis= 0.01621  next Energy=  -233.958514 (dE=-0.133E-01)
 bond charge predicted
       N       E                     dE             d eps       ncg     rms          rms(c)
DAV:   1    -0.233951365368E+03    0.56674E-02   -0.10126E+00  3328   0.360E+00    0.301E-01
DAV:   2    -0.233958655534E+03   -0.72902E-02   -0.81809E-02  4368   0.845E-01    0.124E-01
DAV:   3    -0.233958588704E+03    0.66831E-04   -0.26814E-03  5656   0.162E-01    0.991E-02
DAV:   4    -0.233958531872E+03    0.56832E-04   -0.26773E-04  5664   0.482E-02    0.472E-02
DAV:   5    -0.233958495411E+03    0.36461E-04   -0.13757E-04  4384   0.335E-02    0.174E-02
DAV:   6    -0.233958499618E+03   -0.42075E-05   -0.52109E-05  4720   0.165E-02    0.172E-02
DAV:   7    -0.233958498827E+03    0.79171E-06   -0.94586E-06  3904   0.691E-03
  15 F= -.23395850E+03 E0= -.23395850E+03  d E =-.133231E-01
 curvature:  -1.45 expect dE=-0.173E-01 dE for cont linesearch -0.144E-05
 trial: gam= 0.73160 g(F)=  0.116E-01 g(S)=  0.277E-03 ort = 0.178E-03 (trialstep = 0.111E+01)
 search vector abs. value=  0.292E-01
 bond charge predicted
       N       E                     dE             d eps       ncg     rms          rms(c)
DAV:   1    -0.233941663349E+03    0.16836E-01   -0.51020E+00  3328   0.683E+00    0.671E-01
DAV:   2    -0.233967862855E+03   -0.26200E-01   -0.29973E-01  4368   0.173E+00    0.303E-01
DAV:   3    -0.233967493055E+03    0.36980E-03   -0.11483E-02  5880   0.317E-01    0.232E-01
DAV:   4    -0.233967143271E+03    0.34978E-03   -0.12809E-03  5456   0.113E-01    0.102E-01
DAV:   5    -0.233967009072E+03    0.13420E-03   -0.59650E-04  4864   0.685E-02    0.291E-02
DAV:   6    -0.233967017353E+03   -0.82812E-05   -0.13076E-04  4888   0.273E-02    0.345E-02
DAV:   7    -0.233967016080E+03    0.12732E-05   -0.22936E-05  5336   0.104E-02    0.182E-02
DAV:   8    -0.233967014615E+03    0.14649E-05   -0.15613E-06  2256   0.549E-03    0.103E-02
DAV:   9    -0.233967013896E+03    0.71910E-06   -0.16529E-06  2080   0.542E-03
  16 F= -.23396701E+03 E0= -.23396701E+03  d E =-.851507E-02
 trial-energy change:   -0.008515  1 .order   -0.008158   -0.013374   -0.002943
 step:   1.3628(harm=  1.4258)  dis= 0.01179  next Energy=  -233.967350 (dE=-0.885E-02)
 bond charge predicted
       N       E                     dE             d eps       ncg     rms          rms(c)
DAV:   1    -0.233966146527E+03    0.86809E-03   -0.25997E-01  3328   0.154E+00    0.151E-01
DAV:   2    -0.233967460484E+03   -0.13140E-02   -0.14988E-02  4408   0.392E-01    0.683E-02
DAV:   3    -0.233967437626E+03    0.22859E-04   -0.54792E-04  5704   0.712E-02    0.518E-02
DAV:   4    -0.233967419542E+03    0.18083E-04   -0.68932E-05  5664   0.255E-02    0.221E-02
DAV:   5    -0.233967412378E+03    0.71638E-05   -0.27736E-05  4896   0.148E-02    0.651E-03
DAV:   6    -0.233967412263E+03    0.11565E-06   -0.51971E-06  3080   0.588E-03
  17 F= -.23396741E+03 E0= -.23396741E+03  d E =-.891344E-02
 curvature:  -1.66 expect dE=-0.110E-01 dE for cont linesearch -0.723E-05
 trial: gam= 0.23722 g(F)=  0.648E-02 g(S)=  0.121E-03 ort = 0.356E-03 (trialstep = 0.116E+01)
 search vector abs. value=  0.841E-02
 bond charge predicted
       N       E                     dE             d eps       ncg     rms          rms(c)
DAV:   1    -0.233958711821E+03    0.87006E-02   -0.14408E+00  3352   0.501E+00    0.386E-01
DAV:   2    -0.233972942748E+03   -0.14231E-01   -0.16204E-01  4264   0.112E+00    0.166E-01
DAV:   3    -0.233972807364E+03    0.13538E-03   -0.45412E-03  5664   0.225E-01    0.129E-01
DAV:   4    -0.233972662853E+03    0.14451E-03   -0.51946E-04  5480   0.641E-02    0.620E-02
DAV:   5    -0.233972607426E+03    0.55427E-04   -0.22809E-04  4736   0.426E-02    0.211E-02
DAV:   6    -0.233972609497E+03   -0.20705E-05   -0.58644E-05  4872   0.185E-02    0.244E-02
DAV:   7    -0.233972607713E+03    0.17841E-05   -0.12291E-05  4504   0.821E-03    0.123E-02
DAV:   8    -0.233972606407E+03    0.13056E-05   -0.10854E-06  2088   0.444E-03    0.679E-03
DAV:   9    -0.233972605877E+03    0.53044E-06   -0.87682E-07  1984   0.443E-03
  18 F= -.23397261E+03 E0= -.23397261E+03  d E =-.519361E-02
 trial-energy change:   -0.005194  1 .order   -0.005077   -0.007765   -0.002388
 step:   1.5996(harm=  1.6782)  dis= 0.00938  next Energy=  -233.973061 (dE=-0.565E-02)
 bond charge predicted
       N       E                     dE             d eps       ncg     rms          rms(c)
DAV:   1    -0.233971153637E+03    0.14528E-02   -0.20435E-01  3352   0.188E+00    0.145E-01
DAV:   2    -0.233973157241E+03   -0.20036E-02   -0.22778E-02  4248   0.425E-01    0.627E-02
DAV:   3    -0.233973141466E+03    0.15775E-04   -0.68653E-04  5672   0.853E-02    0.483E-02
DAV:   4    -0.233973121059E+03    0.20407E-04   -0.72436E-05  5504   0.242E-02    0.231E-02
DAV:   5    -0.233973112295E+03    0.87641E-05   -0.31311E-05  4648   0.161E-02    0.800E-03
DAV:   6    -0.233973112129E+03    0.16587E-06   -0.78786E-06  3632   0.713E-03
  19 F= -.23397311E+03 E0= -.23397311E+03  d E =-.569987E-02
 curvature:  -1.03 expect dE=-0.573E-02 dE for cont linesearch -0.389E-05
 trial: gam= 0.79637 g(F)=  0.552E-02 g(S)=  0.410E-04 ort = 0.178E-03 (trialstep = 0.940E+00)
 search vector abs. value=  0.112E-01
 bond charge predicted
       N       E                     dE             d eps       ncg     rms          rms(c)
DAV:   1    -0.233968521861E+03    0.45904E-02   -0.13445E+00  3328   0.406E+00    0.329E-01
DAV:   2    -0.233977167302E+03   -0.86454E-02   -0.97891E-02  4344   0.974E-01    0.143E-01
DAV:   3    -0.233977115731E+03    0.51570E-04   -0.35127E-03  5760   0.184E-01    0.112E-01
DAV:   4    -0.233977038380E+03    0.77351E-04   -0.35863E-04  5880   0.587E-02    0.505E-02
DAV:   5    -0.233976997969E+03    0.40411E-04   -0.16031E-04  4832   0.375E-02    0.159E-02
DAV:   6    -0.233977001466E+03   -0.34979E-05   -0.48532E-05  4680   0.162E-02    0.180E-02
DAV:   7    -0.233977000561E+03    0.90577E-06   -0.68487E-06  3560   0.622E-03
  20 F= -.23397700E+03 E0= -.23397700E+03  d E =-.388843E-02
 trial-energy change:   -0.003888  1 .order   -0.003857   -0.005361   -0.002352
 step:   1.6037(harm=  1.6758)  dis= 0.01008  next Energy=  -233.977841 (dE=-0.473E-02)
 bond charge predicted
       N       E                     dE             d eps       ncg     rms          rms(c)
DAV:   1    -0.233973653885E+03    0.33476E-02   -0.66890E-01  3328   0.286E+00    0.238E-01
DAV:   2    -0.233977966746E+03   -0.43129E-02   -0.48854E-02  4344   0.686E-01    0.992E-02
DAV:   3    -0.233977937069E+03    0.29677E-04   -0.17293E-03  5728   0.130E-01    0.778E-02
DAV:   4    -0.233977898736E+03    0.38333E-04   -0.17870E-04  5872   0.413E-02    0.349E-02
DAV:   5    -0.233977878966E+03    0.19770E-04   -0.76224E-05  4848   0.261E-02    0.111E-02
DAV:   6    -0.233977880498E+03   -0.15316E-05   -0.23510E-05  4536   0.113E-02    0.127E-02
DAV:   7    -0.233977879886E+03    0.61191E-06   -0.23817E-06  2128   0.495E-03
  21 F= -.23397788E+03 E0= -.23397788E+03  d E =-.476776E-02
 curvature:  -1.63 expect dE=-0.512E-02 dE for cont linesearch -0.278E-05
 trial: gam= 0.51019 g(F)=  0.313E-02 g(S)=  0.201E-04 ort = 0.138E-03 (trialstep = 0.107E+01)
 search vector abs. value=  0.620E-02
 bond charge predicted
       N       E                     dE             d eps       ncg     rms          rms(c)
DAV:   1    -0.233973075521E+03    0.48050E-02   -0.92137E-01  3264   0.353E+00    0.292E-01
DAV:   2    -0.233980615631E+03   -0.75401E-02   -0.84872E-02  4336   0.870E-01    0.121E-01
DAV:   3    -0.233980604627E+03    0.11005E-04   -0.28462E-03  5608   0.167E-01    0.983E-02
DAV:   4    -0.233980562554E+03    0.42073E-04   -0.25168E-04  5920   0.481E-02    0.497E-02
DAV:   5    -0.233980528972E+03    0.33581E-04   -0.12315E-04  4504   0.314E-02    0.199E-02
DAV:   6    -0.233980533062E+03   -0.40897E-05   -0.50045E-05  4624   0.160E-02    0.139E-02
DAV:   7    -0.233980532561E+03    0.50126E-06   -0.82524E-06  3432   0.704E-03
  22 F= -.23398053E+03 E0= -.23398053E+03  d E =-.265267E-02
 trial-energy change:   -0.002653  1 .order   -0.002669   -0.003451   -0.001887
 step:   2.5959(harm=  2.3678)  dis= 0.01328  next Energy=  -233.981825 (dE=-0.395E-02)
 bond charge predicted
       N       E                     dE             d eps       ncg     rms          rms(c)
DAV:   1    -0.233966449915E+03    0.14083E-01   -0.18544E+00  3264   0.502E+00    0.416E-01
DAV:   2    -0.233981691026E+03   -0.15241E-01   -0.17167E-01  4320   0.123E+00    0.171E-01
DAV:   3    -0.233981656644E+03    0.34383E-04   -0.55873E-03  5664   0.236E-01    0.139E-01
DAV:   4    -0.233981573628E+03    0.83015E-04   -0.49050E-04  5880   0.674E-02    0.706E-02
DAV:   5    -0.233981505550E+03    0.68078E-04   -0.25357E-04  4536   0.448E-02    0.281E-02
DAV:   6    -0.233981513694E+03   -0.81434E-05   -0.99934E-05  4632   0.228E-02    0.196E-02
DAV:   7    -0.233981512676E+03    0.10173E-05   -0.18352E-05  4584   0.994E-03    0.115E-02
DAV:   8    -0.233981513169E+03   -0.49263E-06   -0.40959E-06  2976   0.625E-03
  23 F= -.23398151E+03 E0= -.23398151E+03  d E =-.363328E-02
 curvature:  -2.21 expect dE=-0.157E-01 dE for cont linesearch -0.708E-04
 trial: gam= 2.40880 g(F)=  0.702E-02 g(S)=  0.911E-04 ort =-0.446E-03 (trialstep = 0.209E+00)
 search vector abs. value=  0.409E-01
 bond charge predicted
       N       E                     dE             d eps       ncg     rms          rms(c)
DAV:   1    -0.233981286114E+03    0.22656E-03   -0.24056E-01  3264   0.148E+00    0.139E-01
DAV:   2    -0.233982723173E+03   -0.14371E-02   -0.16122E-02  4432   0.389E-01    0.594E-02
DAV:   3    -0.233982720176E+03    0.29968E-05   -0.58870E-04  5720   0.720E-02    0.472E-02
DAV:   4    -0.233982712703E+03    0.74732E-05   -0.51291E-05  5896   0.227E-02    0.225E-02
DAV:   5    -0.233982706129E+03    0.65737E-05   -0.27755E-05  4536   0.145E-02    0.838E-03
DAV:   6    -0.233982706865E+03   -0.73597E-06   -0.81827E-06  3464   0.677E-03
  24 F= -.23398271E+03 E0= -.23398271E+03  d E =-.119370E-02
 ZBRENT: can't locate minimum, use default step
 trial-energy change:   -0.001194  1 .order   -0.001195   -0.001260   -0.001130
 step:   0.8345(harm=  2.0272)  dis= 0.01277  next Energy=  -233.987633 (dE=-0.612E-02)
 bond charge predicted
       N       E                     dE             d eps       ncg     rms          rms(c)
DAV:   1    -0.233972252961E+03    0.10453E-01   -0.21625E+00  3264   0.445E+00    0.418E-01
DAV:   2    -0.233985290126E+03   -0.13037E-01   -0.14650E-01  4392   0.117E+00    0.177E-01
DAV:   3    -0.233985273268E+03    0.16858E-04   -0.53719E-03  5760   0.217E-01    0.141E-01
DAV:   4    -0.233985207216E+03    0.66052E-04   -0.46863E-04  5920   0.686E-02    0.675E-02
DAV:   5    -0.233985148524E+03    0.58692E-04   -0.25906E-04  4760   0.440E-02    0.248E-02
DAV:   6    -0.233985155854E+03   -0.73305E-05   -0.76045E-05  4416   0.199E-02    0.157E-02
DAV:   7    -0.233985155441E+03    0.41288E-06   -0.10396E-05  4544   0.758E-03    0.930E-03
DAV:   8    -0.233985155564E+03   -0.12237E-06   -0.14476E-06  2120   0.413E-03
  25 F= -.23398516E+03 E0= -.23398516E+03  d E =-.364239E-02
 curvature:  -3.91 expect dE=-0.311E-01 dE for cont linesearch -0.424E-03
 ZBRENT: increasing intervall
 opt :   2.0862  next Energy=  -233.983648 (dE=-0.213E-02)
 bond charge predicted
       N       E                     dE             d eps       ncg     rms          rms(c)
DAV:   1    -0.233929936432E+03    0.55219E-01   -0.86429E+00  3264   0.888E+00    0.835E-01
DAV:   2    -0.233982331585E+03   -0.52395E-01   -0.58778E-01  4408   0.234E+00    0.355E-01
DAV:   3    -0.233982391801E+03   -0.60216E-04   -0.22631E-02  5800   0.437E-01    0.283E-01
DAV:   4    -0.233982133491E+03    0.25831E-03   -0.18657E-03  5880   0.139E-01    0.137E-01
DAV:   5    -0.233981890964E+03    0.24253E-03   -0.10804E-03  4664   0.888E-02    0.497E-02
DAV:   6    -0.233981922272E+03   -0.31308E-04   -0.31484E-04  4584   0.402E-02    0.322E-02
DAV:   7    -0.233981920046E+03    0.22263E-05   -0.42772E-05  5336   0.147E-02    0.190E-02
DAV:   8    -0.233981920745E+03   -0.69911E-06   -0.73420E-06  3608   0.783E-03
  26 F= -.23398192E+03 E0= -.23398192E+03  d E =-.407576E-03
 curvature:  13.91 expect dE= 0.192E+00 dE for cont linesearch  0.191E-01
 ZBRENT: bracketing found
 ZBRENT: interpolating
 opt :   1.1090  next Energy=  -233.985445 (dE=-0.393E-02)
 bond charge predicted
       N       E                     dE             d eps       ncg     rms          rms(c)
DAV:   1    -0.233953914069E+03    0.28006E-01   -0.52663E+00  3264   0.693E+00    0.656E-01
DAV:   2    -0.233985716468E+03   -0.31802E-01   -0.35709E-01  4368   0.182E+00    0.280E-01
DAV:   3    -0.233985742856E+03   -0.26387E-04   -0.13691E-02  5816   0.338E-01    0.224E-01
DAV:   4    -0.233985581828E+03    0.16103E-03   -0.10995E-03  5904   0.106E-01    0.108E-01
DAV:   5    -0.233985435566E+03    0.14626E-03   -0.65417E-04  4776   0.684E-02    0.392E-02
DAV:   6    -0.233985454355E+03   -0.18789E-04   -0.18608E-04  4536   0.306E-02    0.250E-02
DAV:   7    -0.233985453227E+03    0.11282E-05   -0.24724E-05  5360   0.112E-02    0.152E-02
DAV:   8    -0.233985453606E+03   -0.37912E-06   -0.36714E-06  2616   0.578E-03
  27 F= -.23398545E+03 E0= -.23398545E+03  d E =-.394044E-02
 curvature:  -0.21 expect dE=-0.183E-02 dE for cont linesearch -0.521E-08
 trial: gam= 0.35684 g(F)=  0.852E-02 g(S)=  0.159E-03 ort = 0.318E-04 (trialstep = 0.389E+00)
 search vector abs. value=  0.139E-01
 bond charge predicted
       N       E                     dE             d eps       ncg     rms          rms(c)
DAV:   1    -0.233985040637E+03    0.41259E-03   -0.24630E-01  3496   0.226E+00    0.165E-01
DAV:   2    -0.233988350829E+03   -0.33102E-02   -0.37519E-02  4024   0.474E-01    0.632E-02
DAV:   3    -0.233988417059E+03   -0.66230E-04   -0.14415E-03  5472   0.108E-01    0.521E-02
DAV:   4    -0.233988393727E+03    0.23332E-04   -0.10050E-04  5416   0.267E-02    0.278E-02
DAV:   5    -0.233988384495E+03    0.92317E-05   -0.39424E-05  4536   0.183E-02    0.983E-03
DAV:   6    -0.233988384716E+03   -0.22108E-06   -0.11820E-05  4168   0.848E-03    0.114E-02
DAV:   7    -0.233988383987E+03    0.72904E-06   -0.21335E-06  2160   0.448E-03
  28 F= -.23398838E+03 E0= -.23398838E+03  d E =-.293038E-02
 trial-energy change:   -0.002930  1 .order   -0.002900   -0.003378   -0.002421
 step:   1.0392(harm=  1.3724)  dis= 0.00808  next Energy=  -233.990553 (dE=-0.510E-02)
 bond charge predicted
       N       E                     dE             d eps       ncg     rms          rms(c)
DAV:   1    -0.233981454859E+03    0.69299E-02   -0.69117E-01  3504   0.378E+00    0.277E-01
DAV:   2    -0.233990742568E+03   -0.92877E-02   -0.10532E-01  4040   0.795E-01    0.106E-01
DAV:   3    -0.233990922329E+03   -0.17976E-03   -0.40247E-03  5432   0.180E-01    0.873E-02
DAV:   4    -0.233990858468E+03    0.63861E-04   -0.28632E-04  5456   0.453E-02    0.463E-02
DAV:   5    -0.233990833794E+03    0.24674E-04   -0.11012E-04  4544   0.310E-02    0.163E-02
DAV:   6    -0.233990835290E+03   -0.14959E-05   -0.35898E-05  4976   0.145E-02    0.196E-02
DAV:   7    -0.233990833774E+03    0.15167E-05   -0.77119E-06  3664   0.632E-03    0.117E-02
DAV:   8    -0.233990832989E+03    0.78509E-06   -0.10904E-06  2168   0.413E-03
  29 F= -.23399083E+03 E0= -.23399083E+03  d E =-.537938E-02
 curvature:  -0.97 expect dE=-0.351E-02 dE for cont linesearch -0.647E-04
 ZBRENT: extrapolating
 opt :   1.1580  next Energy=  -233.990890 (dE=-0.544E-02)
 bond charge predicted
       N       E                     dE             d eps       ncg     rms          rms(c)
DAV:   1    -0.233990572799E+03    0.26097E-03   -0.23170E-02  3488   0.691E-01    0.511E-02
DAV:   2    -0.233990884982E+03   -0.31218E-03   -0.35299E-03  4072   0.146E-01    0.194E-02
DAV:   3    -0.233990891017E+03   -0.60352E-05   -0.13604E-04  5480   0.323E-02    0.160E-02
DAV:   4    -0.233990888693E+03    0.23244E-05   -0.91511E-06  4608   0.828E-03    0.848E-03
DAV:   5    -0.233990887592E+03    0.11006E-05   -0.45029E-06  3200   0.641E-03    0.314E-03
DAV:   6    -0.233990887511E+03    0.81272E-07   -0.10095E-06  1984   0.388E-03
  30 F= -.23399089E+03 E0= -.23399089E+03  d E =-.543390E-02
 curvature:  -0.86 expect dE=-0.358E-02 dE for cont linesearch -0.206E-06
 trial: gam= 0.39884 g(F)=  0.412E-02 g(S)=  0.478E-04 ort =-0.577E-04 (trialstep = 0.543E+00)
 search vector abs. value=  0.634E-02
 bond charge predicted
       N       E                     dE             d eps       ncg     rms          rms(c)
DAV:   1    -0.233990466466E+03    0.42113E-03   -0.23986E-01  3288   0.199E+00    0.148E-01
DAV:   2    -0.233992733008E+03   -0.22665E-02   -0.25588E-02  4152   0.433E-01    0.579E-02
DAV:   3    -0.233992751303E+03   -0.18295E-04   -0.88706E-04  5584   0.904E-02    0.476E-02
DAV:   4    -0.233992731975E+03    0.19328E-04   -0.80863E-05  5560   0.250E-02    0.228E-02
DAV:   5    -0.233992725489E+03    0.64859E-05   -0.30910E-05  4760   0.161E-02    0.749E-03
DAV:   6    -0.233992725540E+03   -0.51321E-07   -0.67443E-06  3424   0.667E-03
  31 F= -.23399273E+03 E0= -.23399273E+03  d E =-.183803E-02
 trial-energy change:   -0.001838  1 .order   -0.001830   -0.002251   -0.001410
 step:   1.3444(harm=  1.4520)  dis= 0.00511  next Energy=  -233.993792 (dE=-0.290E-02)
 bond charge predicted
       N       E                     dE             d eps       ncg     rms          rms(c)
DAV:   1    -0.233988876363E+03    0.38491E-02   -0.52440E-01  3296   0.295E+00    0.220E-01
DAV:   2    -0.233993825349E+03   -0.49490E-02   -0.55929E-02  4184   0.643E-01    0.860E-02
DAV:   3    -0.233993854499E+03   -0.29150E-04   -0.18286E-03  5592   0.133E-01    0.703E-02
DAV:   4    -0.233993813066E+03    0.41433E-04   -0.17711E-04  5608   0.371E-02    0.337E-02
DAV:   5    -0.233993799505E+03    0.13562E-04   -0.66081E-05  4776   0.240E-02    0.111E-02
DAV:   6    -0.233993800151E+03   -0.64620E-06   -0.17281E-05  4464   0.102E-02    0.142E-02
DAV:   7    -0.233993799589E+03    0.56241E-06   -0.22092E-06  2352   0.450E-03
  32 F= -.23399380E+03 E0= -.23399380E+03  d E =-.291208E-02
 curvature:  -1.09 expect dE=-0.339E-02 dE for cont linesearch -0.354E-06
 trial: gam= 0.61881 g(F)=  0.306E-02 g(S)=  0.360E-04 ort = 0.453E-04 (trialstep = 0.703E+00)
 search vector abs. value=  0.558E-02
 bond charge predicted
       N       E                     dE             d eps       ncg     rms          rms(c)
DAV:   1    -0.233993157296E+03    0.64285E-03   -0.36800E-01  3328   0.199E+00    0.194E-01
DAV:   2    -0.233995624661E+03   -0.24674E-02   -0.27547E-02  4264   0.509E-01    0.791E-02
DAV:   3    -0.233995604548E+03    0.20113E-04   -0.10330E-03  5624   0.965E-02    0.610E-02
DAV:   4    -0.233995582228E+03    0.22320E-04   -0.10209E-04  5576   0.293E-02    0.282E-02
DAV:   5    -0.233995571902E+03    0.10326E-04   -0.49271E-05  4288   0.189E-02    0.103E-02
DAV:   6    -0.233995573066E+03   -0.11644E-05   -0.13852E-05  4192   0.909E-03    0.914E-03
DAV:   7    -0.233995572839E+03    0.22700E-06   -0.14862E-06  2056   0.410E-03
  33 F= -.23399557E+03 E0= -.23399557E+03  d E =-.177325E-02
 trial-energy change:   -0.001773  1 .order   -0.001759   -0.002196   -0.001321
 step:   1.5689(harm=  1.7638)  dis= 0.00347  next Energy=  -233.996414 (dE=-0.261E-02)
 bond charge predicted
       N       E                     dE             d eps       ncg     rms          rms(c)
DAV:   1    -0.233992768817E+03    0.28042E-02   -0.55818E-01  3328   0.245E+00    0.238E-01
DAV:   2    -0.233996525896E+03   -0.37571E-02   -0.41957E-02  4280   0.626E-01    0.977E-02
DAV:   3    -0.233996494074E+03    0.31822E-04   -0.15612E-03  5640   0.119E-01    0.757E-02
DAV:   4    -0.233996459740E+03    0.34335E-04   -0.15609E-04  5584   0.359E-02    0.351E-02
DAV:   5    -0.233996443691E+03    0.16049E-04   -0.75391E-05  4432   0.235E-02    0.128E-02
DAV:   6    -0.233996445573E+03   -0.18822E-05   -0.22115E-05  4696   0.111E-02    0.116E-02
DAV:   7    -0.233996445227E+03    0.34601E-06   -0.23954E-06  2240   0.474E-03
  34 F= -.23399645E+03 E0= -.23399645E+03  d E =-.264564E-02
 curvature:  -1.52 expect dE=-0.251E-02 dE for cont linesearch -0.565E-06
 trial: gam= 0.41422 g(F)=  0.161E-02 g(S)=  0.355E-04 ort = 0.455E-04 (trialstep = 0.876E+00)
 search vector abs. value=  0.265E-02
 bond charge predicted
       N       E                     dE             d eps       ncg     rms          rms(c)
DAV:   1    -0.233995649611E+03    0.79596E-03   -0.26684E-01  3328   0.168E+00    0.168E-01
DAV:   2    -0.233997524519E+03   -0.18749E-02   -0.21076E-02  4336   0.425E-01    0.717E-02
DAV:   3    -0.233997509725E+03    0.14794E-04   -0.81528E-04  5624   0.852E-02    0.552E-02
DAV:   4    -0.233997491050E+03    0.18675E-04   -0.83099E-05  5456   0.256E-02    0.252E-02
DAV:   5    -0.233997484998E+03    0.60525E-05   -0.32502E-05  4816   0.155E-02    0.843E-03
DAV:   6    -0.233997486260E+03   -0.12626E-05   -0.87138E-06  3712   0.702E-03    0.745E-03
DAV:   7    -0.233997486611E+03   -0.35115E-06   -0.10927E-06  2056   0.390E-03
  35 F= -.23399749E+03 E0= -.23399749E+03  d E =-.104138E-02
 trial-energy change:   -0.001041  1 .order   -0.001028   -0.001462   -0.000594
 step:   1.3978(harm=  1.4747)  dis= 0.00308  next Energy=  -233.997666 (dE=-0.122E-02)
 bond charge predicted
       N       E                     dE             d eps       ncg     rms          rms(c)
DAV:   1    -0.233997020292E+03    0.46597E-03   -0.94632E-02  3328   0.998E-01    0.998E-02
DAV:   2    -0.233997685667E+03   -0.66538E-03   -0.74815E-03  4360   0.254E-01    0.425E-02
DAV:   3    -0.233997679728E+03    0.59393E-05   -0.28414E-04  5632   0.504E-02    0.329E-02
DAV:   4    -0.233997673106E+03    0.66221E-05   -0.29471E-05  5368   0.154E-02    0.150E-02
DAV:   5    -0.233997671180E+03    0.19254E-05   -0.11566E-05  4112   0.954E-03    0.495E-03
DAV:   6    -0.233997671752E+03   -0.57148E-06   -0.29419E-06  2384   0.509E-03
  36 F= -.23399767E+03 E0= -.23399767E+03  d E =-.122652E-02
 curvature:  -1.15 expect dE=-0.921E-03 dE for cont linesearch -0.886E-06
 trial: gam= 0.34148 g(F)=  0.771E-03 g(S)=  0.303E-04 ort = 0.452E-04 (trialstep = 0.980E+00)
 search vector abs. value=  0.114E-02
 bond charge predicted
       N       E                     dE             d eps       ncg     rms          rms(c)
DAV:   1    -0.233997315278E+03    0.35590E-03   -0.14042E-01  3328   0.124E+00    0.130E-01
DAV:   2    -0.233998288942E+03   -0.97366E-03   -0.11138E-02  4208   0.327E-01    0.562E-02
DAV:   3    -0.233998273303E+03    0.15638E-04   -0.40692E-04  5600   0.622E-02    0.433E-02
DAV:   4    -0.233998258495E+03    0.14809E-04   -0.49025E-05  5440   0.207E-02    0.191E-02
DAV:   5    -0.233998252742E+03    0.57524E-05   -0.22751E-05  4560   0.136E-02    0.575E-03
DAV:   6    -0.233998252881E+03   -0.13909E-06   -0.55417E-06  3216   0.603E-03
  37 F= -.23399825E+03 E0= -.23399825E+03  d E =-.581130E-03
 trial-energy change:   -0.000581  1 .order   -0.000578   -0.000800   -0.000356
 step:   1.7664(harm=  1.7664)  dis= 0.00239  next Energy=  -233.998393 (dE=-0.721E-03)
 bond charge predicted
       N       E                     dE             d eps       ncg     rms          rms(c)
DAV:   1    -0.233997796729E+03    0.45601E-03   -0.90284E-02  3328   0.993E-01    0.105E-01
DAV:   2    -0.233998420200E+03   -0.62347E-03   -0.71494E-03  4224   0.261E-01    0.444E-02
DAV:   3    -0.233998410522E+03    0.96777E-05   -0.26384E-04  5600   0.500E-02    0.341E-02
DAV:   4    -0.233998401137E+03    0.93850E-05   -0.31681E-05  5304   0.167E-02    0.149E-02
DAV:   5    -0.233998397381E+03    0.37566E-05   -0.14303E-05  4360   0.111E-02    0.461E-03
DAV:   6    -0.233998397391E+03   -0.10048E-07   -0.33979E-06  2576   0.530E-03
  38 F= -.23399840E+03 E0= -.23399840E+03  d E =-.725639E-03
 curvature:  -1.23 expect dE=-0.650E-03 dE for cont linesearch -0.115E-07
 trial: gam= 0.64636 g(F)=  0.521E-03 g(S)=  0.578E-05 ort = 0.326E-05 (trialstep = 0.114E+01)
 search vector abs. value=  0.101E-02
 bond charge predicted
       N       E                     dE             d eps       ncg     rms          rms(c)
DAV:   1    -0.233997760835E+03    0.63655E-03   -0.16301E-01  3336   0.129E+00    0.139E-01
DAV:   2    -0.233998921207E+03   -0.11604E-02   -0.13205E-02  4192   0.356E-01    0.609E-02
DAV:   3    -0.233998911232E+03    0.99753E-05   -0.46756E-04  5592   0.679E-02    0.471E-02
DAV:   4    -0.233998898379E+03    0.12853E-04   -0.50413E-05  5472   0.204E-02    0.234E-02
DAV:   5    -0.233998891915E+03    0.64643E-05   -0.26010E-05  4688   0.131E-02    0.822E-03
DAV:   6    -0.233998891935E+03   -0.20424E-07   -0.50422E-06  3048   0.569E-03
  39 F= -.23399889E+03 E0= -.23399889E+03  d E =-.494544E-03
 trial-energy change:   -0.000495  1 .order   -0.000492   -0.000602   -0.000381
 step:   3.1010(harm=  3.1010)  dis= 0.00459  next Energy=  -233.999218 (dE=-0.821E-03)
 bond charge predicted
       N       E                     dE             d eps       ncg     rms          rms(c)
DAV:   1    -0.233995861133E+03    0.30308E-02   -0.48526E-01  3336   0.223E+00    0.238E-01
DAV:   2    -0.233999297645E+03   -0.34365E-02   -0.39145E-02  4208   0.614E-01    0.106E-01
DAV:   3    -0.233999269322E+03    0.28322E-04   -0.13973E-03  5624   0.117E-01    0.817E-02
DAV:   4    -0.233999231644E+03    0.37679E-04   -0.15141E-04  5528   0.352E-02    0.406E-02
DAV:   5    -0.233999213723E+03    0.17920E-04   -0.77851E-05  4968   0.226E-02    0.142E-02
DAV:   6    -0.233999214486E+03   -0.76306E-06   -0.16249E-05  4160   0.928E-03    0.928E-03
DAV:   7    -0.233999213950E+03    0.53598E-06   -0.16607E-06  2248   0.430E-03
  40 F= -.23399921E+03 E0= -.23399921E+03  d E =-.816559E-03
 curvature:  -2.95 expect dE=-0.474E-02 dE for cont linesearch -0.238E-05
 trial: gam= 3.13380 g(F)=  0.159E-02 g(S)=  0.143E-04 ort =-0.285E-04 (trialstep = 0.136E+00)
 search vector abs. value=  0.113E-01
 bond charge predicted
       N       E                     dE             d eps       ncg     rms          rms(c)
DAV:   1    -0.233999287701E+03   -0.73215E-04   -0.28089E-02  3264   0.399E-01    0.556E-02
DAV:   2    -0.233999419101E+03   -0.13140E-03   -0.14715E-03  4592   0.121E-01    0.234E-02
DAV:   3    -0.233999417900E+03    0.12008E-05   -0.61103E-05  5544   0.224E-02    0.177E-02
DAV:   4    -0.233999416807E+03    0.10930E-05   -0.55482E-06  3728   0.737E-03    0.903E-03
DAV:   5    -0.233999416016E+03    0.79116E-06   -0.44066E-06  3024   0.557E-03
  41 F= -.23399942E+03 E0= -.23399942E+03  d E =-.202066E-03
 ZBRENT: can't locate minimum, use default step
 trial-energy change:   -0.000202  1 .order   -0.000200   -0.000206   -0.000194
 step:   0.5448(harm=  2.2157)  dis= 0.00290  next Energy=  -234.000893 (dE=-0.168E-02)
 bond charge predicted
       N       E                     dE             d eps       ncg     rms          rms(c)
DAV:   1    -0.233998813163E+03    0.60364E-03   -0.25244E-01  3264   0.120E+00    0.164E-01
DAV:   2    -0.233999953999E+03   -0.11408E-02   -0.12804E-02  4544   0.353E-01    0.708E-02
DAV:   3    -0.233999945758E+03    0.82413E-05   -0.54530E-04  5568   0.665E-02    0.531E-02
DAV:   4    -0.233999936786E+03    0.89721E-05   -0.55640E-05  5496   0.215E-02    0.260E-02
DAV:   5    -0.233999930995E+03    0.57903E-05   -0.26171E-05  4736   0.131E-02    0.896E-03
DAV:   6    -0.233999931290E+03   -0.29492E-06   -0.60005E-06  3312   0.575E-03
  42 F= -.23399993E+03 E0= -.23399993E+03  d E =-.717340E-03
 curvature:  -2.93 expect dE=-0.490E-02 dE for cont linesearch -0.283E-03
 ZBRENT: increasing intervall
 opt :   1.3620  next Energy=  -234.000476 (dE=-0.126E-02)
 bond charge predicted
       N       E                     dE             d eps       ncg     rms          rms(c)
DAV:   1    -0.233995679154E+03    0.42518E-02   -0.10091E+00  3264   0.239E+00    0.328E-01
DAV:   2    -0.234000276033E+03   -0.45969E-02   -0.51565E-02  4552   0.709E-01    0.142E-01
DAV:   3    -0.234000237615E+03    0.38417E-04   -0.21533E-03  5624   0.133E-01    0.107E-01
DAV:   4    -0.234000202645E+03    0.34971E-04   -0.21380E-04  5688   0.427E-02    0.529E-02
DAV:   5    -0.234000178473E+03    0.24172E-04   -0.11429E-04  4896   0.270E-02    0.178E-02
DAV:   6    -0.234000180744E+03   -0.22707E-05   -0.28489E-05  4360   0.117E-02    0.966E-03
DAV:   7    -0.234000180388E+03    0.35622E-06   -0.22739E-06  2384   0.439E-03
  43 F= -.23400018E+03 E0= -.23400018E+03  d E =-.966437E-03
 curvature:  -5.66 expect dE=-0.111E-01 dE for cont linesearch -0.282E-03
 ZBRENT: bracketing found
 ZBRENT: interpolating
 opt :   1.0201  next Energy=  -234.000309 (dE=-0.109E-02)
 bond charge predicted
       N       E                     dE             d eps       ncg     rms          rms(c)
DAV:   1    -0.233999478117E+03    0.70263E-03   -0.17658E-01  3264   0.100E+00    0.135E-01
DAV:   2    -0.234000271804E+03   -0.79369E-03   -0.89218E-03  4504   0.296E-01    0.596E-02
DAV:   3    -0.234000265466E+03    0.63383E-05   -0.37451E-04  5584   0.557E-02    0.450E-02
DAV:   4    -0.234000259021E+03    0.64443E-05   -0.37351E-05  5216   0.176E-02    0.221E-02
DAV:   5    -0.234000255791E+03    0.32309E-05   -0.18703E-05  4592   0.110E-02    0.746E-03
DAV:   6    -0.234000256392E+03   -0.60107E-06   -0.37097E-06  2728   0.482E-03
  44 F= -.23400026E+03 E0= -.23400026E+03  d E =-.104244E-02
 curvature:  -2.58 expect dE=-0.462E-02 dE for cont linesearch -0.109E-04
 trial: gam= 0.22463 g(F)=  0.178E-02 g(S)=  0.151E-04 ort = 0.219E-03 (trialstep = 0.313E+00)
 search vector abs. value=  0.246E-02
 bond charge predicted
       N       E                     dE             d eps       ncg     rms          rms(c)
DAV:   1    -0.234000507190E+03   -0.25140E-03   -0.33683E-02  3416   0.681E-01    0.457E-02
DAV:   2    -0.234000756687E+03   -0.24950E-03   -0.27959E-03  4112   0.141E-01    0.209E-02
DAV:   3    -0.234000760636E+03   -0.39495E-05   -0.12255E-04  5576   0.311E-02    0.157E-02
DAV:   4    -0.234000759419E+03    0.12169E-05   -0.74966E-06  4328   0.826E-03    0.808E-03
DAV:   5    -0.234000759051E+03    0.36803E-06   -0.37926E-06  2912   0.591E-03
  45 F= -.23400076E+03 E0= -.23400076E+03  d E =-.502660E-03
 trial-energy change:   -0.000503  1 .order   -0.000503   -0.000576   -0.000429
 step:   1.2272(harm=  1.2272)  dis= 0.00386  next Energy=  -234.001386 (dE=-0.113E-02)
 bond charge predicted
       N       E                     dE             d eps       ncg     rms          rms(c)
DAV:   1    -0.233999179419E+03    0.15800E-02   -0.28741E-01  3408   0.199E+00    0.135E-01
DAV:   2    -0.234001308248E+03   -0.21288E-02   -0.23932E-02  4112   0.412E-01    0.604E-02
DAV:   3    -0.234001341993E+03   -0.33745E-04   -0.10519E-03  5520   0.905E-02    0.442E-02
DAV:   4    -0.234001332565E+03    0.94285E-05   -0.70774E-05  5680   0.244E-02    0.229E-02
DAV:   5    -0.234001327353E+03    0.52114E-05   -0.25923E-05  4640   0.155E-02    0.863E-03
DAV:   6    -0.234001328298E+03   -0.94433E-06   -0.10814E-05  3944   0.821E-03    0.851E-03
DAV:   7    -0.234001328357E+03   -0.59408E-07   -0.28303E-06  2496   0.511E-03
  46 F= -.23400133E+03 E0= -.23400133E+03  d E =-.107197E-02
 curvature:  -0.82 expect dE=-0.747E-03 dE for cont linesearch -0.622E-05
 trial: gam= 0.50597 g(F)=  0.901E-03 g(S)=  0.958E-05 ort =-0.137E-03 (trialstep = 0.496E+00)
 search vector abs. value=  0.140E-02
 bond charge predicted
       N       E                     dE             d eps       ncg     rms          rms(c)
DAV:   1    -0.234001361775E+03   -0.33478E-04   -0.47747E-02  3392   0.725E-01    0.598E-02
DAV:   2    -0.234001660610E+03   -0.29884E-03   -0.33374E-03  4256   0.168E-01    0.262E-02
DAV:   3    -0.234001662602E+03   -0.19919E-05   -0.15086E-04  5632   0.348E-02    0.202E-02
DAV:   4    -0.234001660241E+03    0.23609E-05   -0.12277E-05  4888   0.104E-02    0.960E-03
DAV:   5    -0.234001658737E+03    0.15045E-05   -0.49211E-06  3104   0.668E-03    0.342E-03
DAV:   6    -0.234001658718E+03    0.18492E-07   -0.16257E-06  2136   0.447E-03
  47 F= -.23400166E+03 E0= -.23400166E+03  d E =-.330361E-03
 trial-energy change:   -0.000330  1 .order   -0.000331   -0.000417   -0.000246
 step:   1.2057(harm=  1.2057)  dis= 0.00302  next Energy=  -234.001836 (dE=-0.507E-03)
 bond charge predicted
       N       E                     dE             d eps       ncg     rms          rms(c)
DAV:   1    -0.234001214762E+03    0.44397E-03   -0.97763E-02  3400   0.104E+00    0.858E-02
DAV:   2    -0.234001823769E+03   -0.60901E-03   -0.68285E-03  4232   0.240E-01    0.374E-02
DAV:   3    -0.234001828120E+03   -0.43511E-05   -0.30969E-04  5640   0.498E-02    0.288E-02
DAV:   4    -0.234001823376E+03    0.47442E-05   -0.25877E-05  5608   0.149E-02    0.137E-02
DAV:   5    -0.234001820551E+03    0.28243E-05   -0.10852E-05  3896   0.947E-03    0.476E-03
DAV:   6    -0.234001820591E+03   -0.39425E-07   -0.30779E-06  2504   0.503E-03
  48 F= -.23400182E+03 E0= -.23400182E+03  d E =-.492234E-03
 curvature:  -1.01 expect dE=-0.396E-03 dE for cont linesearch -0.465E-06
 trial: gam= 0.31910 g(F)=  0.389E-03 g(S)=  0.463E-05 ort =-0.255E-04 (trialstep = 0.638E+00)
 search vector abs. value=  0.520E-03
 bond charge predicted
       N       E                     dE             d eps       ncg     rms          rms(c)
DAV:   1    -0.234001829117E+03   -0.85650E-05   -0.26771E-02  3328   0.558E-01    0.559E-02
DAV:   2    -0.234002037461E+03   -0.20834E-03   -0.23731E-03  4304   0.144E-01    0.234E-02
DAV:   3    -0.234002034441E+03    0.30198E-05   -0.78811E-05  5584   0.278E-02    0.182E-02
DAV:   4    -0.234002031816E+03    0.26247E-05   -0.87878E-06  4528   0.866E-03    0.844E-03
DAV:   5    -0.234002030107E+03    0.17092E-05   -0.32962E-06  2560   0.568E-03    0.295E-03
DAV:   6    -0.234002029830E+03    0.27722E-06   -0.12826E-06  2112   0.475E-03
  49 F= -.23400203E+03 E0= -.23400203E+03  d E =-.209239E-03
 trial-energy change:   -0.000209  1 .order   -0.000211   -0.000246   -0.000177
 step:   2.2679(harm=  2.2679)  dis= 0.00346  next Energy=  -234.002258 (dE=-0.437E-03)
 bond charge predicted
       N       E                     dE             d eps       ncg     rms          rms(c)
DAV:   1    -0.234000915737E+03    0.11144E-02   -0.17462E-01  3328   0.143E+00    0.141E-01
DAV:   2    -0.234002263450E+03   -0.13477E-02   -0.15384E-02  4288   0.369E-01    0.607E-02
DAV:   3    -0.234002243658E+03    0.19792E-04   -0.51369E-04  5600   0.708E-02    0.475E-02
DAV:   4    -0.234002227672E+03    0.15986E-04   -0.58614E-05  5616   0.220E-02    0.221E-02
DAV:   5    -0.234002219582E+03    0.80905E-05   -0.25166E-05  4728   0.134E-02    0.803E-03
DAV:   6    -0.234002218951E+03    0.63027E-06   -0.63306E-06  3216   0.596E-03
  50 F= -.23400222E+03 E0= -.23400222E+03  d E =-.398360E-03
 curvature:  -1.53 expect dE=-0.739E-03 dE for cont linesearch -0.404E-05
 trial: gam= 1.31258 g(F)=  0.474E-03 g(S)=  0.920E-05 ort =-0.371E-04 (trialstep = 0.391E+00)
 search vector abs. value=  0.128E-02
 bond charge predicted
       N       E                     dE             d eps       ncg     rms          rms(c)
DAV:   1    -0.234002225013E+03   -0.54313E-05   -0.26035E-02  3328   0.465E-01    0.498E-02
DAV:   2    -0.234002372532E+03   -0.14752E-03   -0.16532E-03  4432   0.126E-01    0.194E-02
DAV:   3    -0.234002371684E+03    0.84785E-06   -0.65091E-05  5600   0.240E-02    0.150E-02
DAV:   4    -0.234002370724E+03    0.96062E-06   -0.55762E-06  3912   0.745E-03
  51 F= -.23400237E+03 E0= -.23400237E+03  d E =-.151772E-03
 ZBRENT: can't locate minimum, use default step
 trial-energy change:   -0.000152  1 .order   -0.000151   -0.000170   -0.000133
 step:   1.5643(harm=  1.7814)  dis= 0.00385  next Energy=  -234.002606 (dE=-0.387E-03)
 bond charge predicted
       N       E                     dE             d eps       ncg     rms          rms(c)
DAV:   1    -0.234001317797E+03    0.10539E-02   -0.23363E-01  3328   0.139E+00    0.142E-01
DAV:   2    -0.234002635534E+03   -0.13177E-02   -0.14693E-02  4368   0.376E-01    0.603E-02
DAV:   3    -0.234002628572E+03    0.69615E-05   -0.57480E-04  5568   0.715E-02    0.472E-02
DAV:   4    -0.234002620738E+03    0.78348E-05   -0.56855E-05  5760   0.221E-02    0.230E-02
DAV:   5    -0.234002614362E+03    0.63752E-05   -0.30448E-05  4520   0.139E-02    0.971E-03
DAV:   6    -0.234002615201E+03   -0.83895E-06   -0.93083E-06  3560   0.681E-03
  52 F= -.23400262E+03 E0= -.23400262E+03  d E =-.396250E-03
 curvature:  -2.56 expect dE=-0.103E-02 dE for cont linesearch -0.119E-04
 trial: gam= 0.50477 g(F)=  0.399E-03 g(S)=  0.384E-05 ort = 0.771E-04 (trialstep = 0.626E+00)
 search vector abs. value=  0.807E-03
 bond charge predicted
       N       E                     dE             d eps       ncg     rms          rms(c)
DAV:   1    -0.234002599359E+03    0.15003E-04   -0.45455E-02  3344   0.677E-01    0.517E-02
DAV:   2    -0.234002861052E+03   -0.26169E-03   -0.29874E-03  4344   0.149E-01    0.221E-02
DAV:   3    -0.234002861937E+03   -0.88499E-06   -0.11908E-04  5592   0.314E-02    0.173E-02
DAV:   4    -0.234002861145E+03    0.79227E-06   -0.97557E-06  4744   0.970E-03
  53 F= -.23400286E+03 E0= -.23400286E+03  d E =-.245943E-03
 ZBRENT: can't locate minimum, use default step
 trial-energy change:   -0.000246  1 .order   -0.000249   -0.000276   -0.000222
 step:   2.5029(harm=  3.2057)  dis= 0.00778  next Energy=  -234.003323 (dE=-0.708E-03)
 bond charge predicted
       N       E                     dE             d eps       ncg     rms          rms(c)
DAV:   1    -0.234000966339E+03    0.18956E-02   -0.40832E-01  3336   0.203E+00    0.152E-01
DAV:   2    -0.234003303379E+03   -0.23370E-02   -0.26535E-02  4328   0.444E-01    0.669E-02
DAV:   3    -0.234003315052E+03   -0.11673E-04   -0.10945E-03  5584   0.941E-02    0.521E-02
DAV:   4    -0.234003307051E+03    0.80004E-05   -0.92553E-05  6000   0.289E-02    0.262E-02
DAV:   5    -0.234003301060E+03    0.59915E-05   -0.38638E-05  4968   0.173E-02    0.104E-02
DAV:   6    -0.234003302981E+03   -0.19214E-05   -0.12080E-05  3808   0.807E-03    0.730E-03
DAV:   7    -0.234003303611E+03   -0.62916E-06   -0.24029E-06  2224   0.464E-03
  54 F= -.23400330E+03 E0= -.23400330E+03  d E =-.688409E-03
 curvature:  -2.71 expect dE=-0.263E-02 dE for cont linesearch -0.407E-04
 ZBRENT: extrapolating
 opt :   3.3457  next Energy=  -234.003350 (dE=-0.735E-03)
 bond charge predicted
       N       E                     dE             d eps       ncg     rms          rms(c)
DAV:   1    -0.234002865277E+03    0.43770E-03   -0.82470E-02  3328   0.912E-01    0.686E-02
DAV:   2    -0.234003341989E+03   -0.47671E-03   -0.54101E-03  4336   0.200E-01    0.301E-02
DAV:   3    -0.234003344260E+03   -0.22709E-05   -0.22517E-04  5576   0.425E-02    0.236E-02
DAV:   4    -0.234003342550E+03    0.17098E-05   -0.18481E-05  5320   0.132E-02    0.118E-02
DAV:   5    -0.234003341534E+03    0.10168E-05   -0.76677E-06  3720   0.808E-03    0.455E-03
DAV:   6    -0.234003342119E+03   -0.58549E-06   -0.25370E-06  2368   0.464E-03
  55 F= -.23400334E+03 E0= -.23400334E+03  d E =-.726918E-03
 curvature:  -3.09 expect dE=-0.525E-02 dE for cont linesearch -0.428E-06
 trial: gam= 4.60171 g(F)=  0.168E-02 g(S)=  0.184E-04 ort =-0.106E-04 (trialstep = 0.505E-01)
 search vector abs. value=  0.187E-01
 bond charge predicted
       N       E                     dE             d eps       ncg     rms          rms(c)
DAV:   1    -0.234003396670E+03   -0.55136E-04   -0.72518E-03  3296   0.191E-01    0.188E-02
DAV:   2    -0.234003422795E+03   -0.26126E-04   -0.29499E-04  4528   0.483E-02    0.804E-03
DAV:   3    -0.234003423180E+03   -0.38456E-06   -0.15231E-05  5376   0.990E-03    0.597E-03
DAV:   4    -0.234003423166E+03    0.14254E-07   -0.74312E-07  2128   0.361E-03
  56 F= -.23400342E+03 E0= -.23400342E+03  d E =-.810465E-04
 ZBRENT: can't locate minimum, use default step
 trial-energy change:   -0.000081  1 .order   -0.000082   -0.000083   -0.000080
 step:   0.2020(harm=  1.2311)  dis= 0.00365  next Energy=  -234.004358 (dE=-0.102E-02)
 bond charge predicted
       N       E                     dE             d eps       ncg     rms          rms(c)
DAV:   1    -0.234003428063E+03   -0.48830E-05   -0.65353E-02  3296   0.573E-01    0.558E-02
DAV:   2    -0.234003649273E+03   -0.22121E-03   -0.24710E-03  4416   0.139E-01    0.241E-02
DAV:   3    -0.234003653586E+03   -0.43132E-05   -0.13736E-04  5696   0.289E-02    0.180E-02
DAV:   4    -0.234003653360E+03    0.22634E-06   -0.10452E-05  4848   0.961E-03    0.882E-03
DAV:   5    -0.234003653172E+03    0.18825E-06   -0.37692E-06  2936   0.554E-03
  57 F= -.23400365E+03 E0= -.23400365E+03  d E =-.311053E-03
 curvature:  -1.68 expect dE=-0.332E-02 dE for cont linesearch -0.192E-03
 ZBRENT: increasing intervall
 opt :   0.5051  next Energy=  -234.004062 (dE=-0.720E-03)
 bond charge predicted
       N       E                     dE             d eps       ncg     rms          rms(c)
DAV:   1    -0.234003107748E+03    0.54561E-03   -0.26159E-01  3296   0.115E+00    0.113E-01
DAV:   2    -0.234003997761E+03   -0.89001E-03   -0.99296E-03  4448   0.277E-01    0.489E-02
DAV:   3    -0.234004010281E+03   -0.12519E-04   -0.51507E-04  5696   0.564E-02    0.363E-02
DAV:   4    -0.234004009498E+03    0.78231E-06   -0.41946E-05  5784   0.188E-02    0.179E-02
DAV:   5    -0.234004008148E+03    0.13509E-05   -0.15823E-05  4408   0.104E-02    0.673E-03
DAV:   6    -0.234004009041E+03   -0.89315E-06   -0.48043E-06  3000   0.517E-03
  58 F= -.23400401E+03 E0= -.23400401E+03  d E =-.666922E-03
 curvature:  -3.56 expect dE=-0.827E-02 dE for cont linesearch -0.111E-03
 ZBRENT: increasing intervall
 opt :   1.1112  next Energy=  -234.004045 (dE=-0.703E-03)
 bond charge predicted
       N       E                     dE             d eps       ncg     rms          rms(c)
DAV:   1    -0.233999751842E+03    0.42563E-02   -0.10463E+00  3304   0.229E+00    0.226E-01
DAV:   2    -0.234003330960E+03   -0.35791E-02   -0.39840E-02  4456   0.556E-01    0.976E-02
DAV:   3    -0.234003397654E+03   -0.66694E-04   -0.22083E-03  5768   0.115E-01    0.734E-02
DAV:   4    -0.234003393608E+03    0.40458E-05   -0.16996E-04  5848   0.382E-02    0.362E-02
DAV:   5    -0.234003385766E+03    0.78421E-05   -0.66386E-05  4992   0.213E-02    0.136E-02
DAV:   6    -0.234003389038E+03   -0.32715E-05   -0.24194E-05  4536   0.101E-02    0.838E-03
DAV:   7    -0.234003389426E+03   -0.38893E-06   -0.40380E-06  2672   0.447E-03
  59 F= -.23400339E+03 E0= -.23400339E+03  d E =-.473073E-04
 curvature:  -1.15 expect dE=-0.399E-02 dE for cont linesearch -0.529E-03
 ZBRENT: bracketing found
 ZBRENT: interpolating
 opt :   0.6299  next Energy=  -234.004057 (dE=-0.714E-03)
 bond charge predicted
       N       E                     dE             d eps       ncg     rms          rms(c)
DAV:   1    -0.234001771842E+03    0.16172E-02   -0.65945E-01  3304   0.182E+00    0.179E-01
DAV:   2    -0.234004035877E+03   -0.22640E-02   -0.25114E-02  4432   0.439E-01    0.787E-02
DAV:   3    -0.234004077733E+03   -0.41856E-04   -0.13840E-03  5728   0.905E-02    0.596E-02
DAV:   4    -0.234004074126E+03    0.36068E-05   -0.10958E-04  5824   0.301E-02    0.295E-02
DAV:   5    -0.234004067314E+03    0.68128E-05   -0.46360E-05  4984   0.168E-02    0.105E-02
DAV:   6    -0.234004068045E+03   -0.73130E-06   -0.10734E-05  3712   0.734E-03    0.656E-03
DAV:   7    -0.234004067755E+03    0.29005E-06   -0.11752E-06  2152   0.340E-03
  60 F= -.23400407E+03 E0= -.23400407E+03  d E =-.725636E-03
 curvature:  -0.10 expect dE=-0.249E-03 dE for cont linesearch -0.139E-06
 trial: gam= 0.32150 g(F)=  0.237E-02 g(S)=  0.506E-04 ort = 0.159E-03 (trialstep = 0.166E+00)
 search vector abs. value=  0.446E-02
 bond charge predicted
       N       E                     dE             d eps       ncg     rms          rms(c)
DAV:   1    -0.234004305969E+03   -0.23792E-03   -0.17250E-02  3400   0.497E-01    0.331E-02
DAV:   2    -0.234004440665E+03   -0.13470E-03   -0.15313E-03  4112   0.984E-02    0.139E-02
DAV:   3    -0.234004443644E+03   -0.29790E-05   -0.67834E-05  5520   0.237E-02    0.110E-02
DAV:   4    -0.234004442453E+03    0.11914E-05   -0.33887E-06  3032   0.616E-03    0.609E-03
DAV:   5    -0.234004441775E+03    0.67766E-06   -0.49005E-06  2984   0.609E-03
  61 F= -.23400444E+03 E0= -.23400444E+03  d E =-.374020E-03
 ZBRENT: can't locate minimum, use default step
 trial-energy change:   -0.000374  1 .order   -0.000372   -0.000411   -0.000334
 step:   0.6655(harm=  0.8804)  dis= 0.00511  next Energy=  -234.005156 (dE=-0.109E-02)
 bond charge predicted
       N       E                     dE             d eps       ncg     rms          rms(c)
DAV:   1    -0.234003857263E+03    0.58519E-03   -0.15547E-01  3400   0.149E+00    0.100E-01
DAV:   2    -0.234005063942E+03   -0.12067E-02   -0.13820E-02  4096   0.295E-01    0.417E-02
DAV:   3    -0.234005092842E+03   -0.28900E-04   -0.64591E-04  5560   0.724E-02    0.321E-02
DAV:   4    -0.234005085013E+03    0.78290E-05   -0.46250E-05  5648   0.190E-02    0.172E-02
DAV:   5    -0.234005080648E+03    0.43654E-05   -0.16013E-05  4584   0.111E-02    0.703E-03
DAV:   6    -0.234005079846E+03    0.80197E-06   -0.30505E-06  2528   0.530E-03
  62 F= -.23400508E+03 E0= -.23400508E+03  d E =-.101209E-02
 curvature:  -0.72 expect dE=-0.493E-03 dE for cont linesearch -0.454E-04
 ZBRENT: extrapolating
 opt :   0.8446  next Energy=  -234.005127 (dE=-0.106E-02)
 bond charge predicted
       N       E                     dE             d eps       ncg     rms          rms(c)
DAV:   1    -0.234004967533E+03    0.11312E-03   -0.20036E-02  3384   0.535E-01    0.365E-02
DAV:   2    -0.234005124402E+03   -0.15687E-03   -0.17940E-03  4104   0.107E-01    0.151E-02
DAV:   3    -0.234005128266E+03   -0.38639E-05   -0.83518E-05  5592   0.259E-02    0.115E-02
DAV:   4    -0.234005126913E+03    0.13529E-05   -0.47652E-06  3528   0.700E-03    0.631E-03
DAV:   5    -0.234005126066E+03    0.84717E-06   -0.49348E-06  3000   0.614E-03
  63 F= -.23400513E+03 E0= -.23400513E+03  d E =-.105831E-02
 curvature:  -0.75 expect dE=-0.513E-03 dE for cont linesearch -0.121E-07
 trial: gam= 0.10784 g(F)=  0.666E-03 g(S)=  0.156E-04 ort =-0.847E-05 (trialstep = 0.302E+00)
 search vector abs. value=  0.731E-03
 bond charge predicted
       N       E                     dE             d eps       ncg     rms          rms(c)
DAV:   1    -0.234005232518E+03   -0.10560E-03   -0.88567E-03  3344   0.370E-01    0.294E-02
DAV:   2    -0.234005311796E+03   -0.79278E-04   -0.92412E-04  4104   0.795E-02    0.133E-02
DAV:   3    -0.234005312368E+03   -0.57269E-06   -0.39200E-05  5472   0.180E-02    0.992E-03
DAV:   4    -0.234005310876E+03    0.14921E-05   -0.24428E-06  2584   0.596E-03    0.462E-03
DAV:   5    -0.234005310269E+03    0.60757E-06   -0.31678E-06  2440   0.565E-03
  64 F= -.23400531E+03 E0= -.23400531E+03  d E =-.184202E-03
 ZBRENT: can't locate minimum, use default step
 trial-energy change:   -0.000184  1 .order   -0.000183   -0.000205   -0.000161
 step:   1.2081(harm=  1.3899)  dis= 0.00258  next Energy=  -234.005599 (dE=-0.473E-03)
 bond charge predicted
       N       E                     dE             d eps       ncg     rms          rms(c)
DAV:   1    -0.234004880013E+03    0.43086E-03   -0.79603E-02  3344   0.111E+00    0.879E-02
DAV:   2    -0.234005583142E+03   -0.70313E-03   -0.82731E-03  4128   0.238E-01    0.400E-02
DAV:   3    -0.234005586577E+03   -0.34347E-05   -0.34196E-04  5504   0.533E-02    0.295E-02
DAV:   4    -0.234005577803E+03    0.87744E-05   -0.34764E-05  5488   0.175E-02    0.133E-02
DAV:   5    -0.234005574621E+03    0.31823E-05   -0.86671E-06  3832   0.808E-03    0.587E-03
DAV:   6    -0.234005573622E+03    0.99829E-06   -0.12394E-06  1984   0.453E-03
  65 F= -.23400557E+03 E0= -.23400557E+03  d E =-.447556E-03
 curvature:  -0.73 expect dE=-0.244E-03 dE for cont linesearch -0.216E-05
 trial: gam= 0.41465 g(F)=  0.330E-03 g(S)=  0.575E-05 ort = 0.466E-04 (trialstep = 0.483E+00)
 search vector abs. value=  0.500E-03
 bond charge predicted
       N       E                     dE             d eps       ncg     rms          rms(c)
DAV:   1    -0.234005616796E+03   -0.42176E-04   -0.15558E-02  3376   0.399E-01    0.392E-02
DAV:   2    -0.234005720755E+03   -0.10396E-03   -0.11671E-03  4256   0.103E-01    0.158E-02
DAV:   3    -0.234005720437E+03    0.31827E-06   -0.45186E-05  5568   0.200E-02    0.120E-02
DAV:   4    -0.234005719453E+03    0.98412E-06   -0.27892E-06  2808   0.611E-03
  66 F= -.23400572E+03 E0= -.23400572E+03  d E =-.145830E-03
 trial-energy change:   -0.000146  1 .order   -0.000148   -0.000172   -0.000124
 step:   1.7408(harm=  1.7408)  dis= 0.00204  next Energy=  -234.005883 (dE=-0.309E-03)
 bond charge predicted
       N       E                     dE             d eps       ncg     rms          rms(c)
DAV:   1    -0.234005177943E+03    0.54249E-03   -0.10476E-01  3376   0.104E+00    0.990E-02
DAV:   2    -0.234005875968E+03   -0.69803E-03   -0.78349E-03  4240   0.264E-01    0.408E-02
DAV:   3    -0.234005875288E+03    0.67980E-06   -0.30487E-04  5600   0.518E-02    0.314E-02
DAV:   4    -0.234005869708E+03    0.55806E-05   -0.28308E-05  5656   0.155E-02    0.147E-02
DAV:   5    -0.234005867175E+03    0.25331E-05   -0.12201E-05  4008   0.101E-02    0.484E-03
DAV:   6    -0.234005867550E+03   -0.37585E-06   -0.39221E-06  2688   0.533E-03
  67 F= -.23400587E+03 E0= -.23400587E+03  d E =-.293928E-03
 curvature:  -1.23 expect dE=-0.417E-03 dE for cont linesearch -0.493E-06
 trial: gam= 1.14566 g(F)=  0.339E-03 g(S)=  0.123E-05 ort =-0.142E-04 (trialstep = 0.381E+00)
 search vector abs. value=  0.964E-03
 bond charge predicted
       N       E                     dE             d eps       ncg     rms          rms(c)
DAV:   1    -0.234005879699E+03   -0.12524E-04   -0.18845E-02  3328   0.367E-01    0.449E-02
DAV:   2    -0.234005981115E+03   -0.10142E-03   -0.11337E-03  4320   0.106E-01    0.182E-02
DAV:   3    -0.234005979783E+03    0.13324E-05   -0.39363E-05  5704   0.197E-02    0.134E-02
DAV:   4    -0.234005978759E+03    0.10238E-05   -0.28463E-06  2704   0.625E-03    0.680E-03
DAV:   5    -0.234005978770E+03   -0.11554E-07   -0.60646E-06  3512   0.601E-03
  68 F= -.23400598E+03 E0= -.23400598E+03  d E =-.111220E-03
 ZBRENT: can't locate minimum, use default step
 trial-energy change:   -0.000111  1 .order   -0.000109   -0.000123   -0.000094
 step:   1.5253(harm=  1.6175)  dis= 0.00234  next Energy=  -234.006129 (dE=-0.262E-03)
 bond charge predicted
       N       E                     dE             d eps       ncg     rms          rms(c)
DAV:   1    -0.234005286964E+03    0.69180E-03   -0.16965E-01  3328   0.110E+00    0.131E-01
DAV:   2    -0.234006185927E+03   -0.89896E-03   -0.99697E-03  4320   0.314E-01    0.573E-02
DAV:   3    -0.234006174923E+03    0.11003E-04   -0.34702E-04  5696   0.577E-02    0.417E-02
DAV:   4    -0.234006166025E+03    0.88987E-05   -0.39324E-05  5568   0.184E-02    0.187E-02
DAV:   5    -0.234006163821E+03    0.22036E-05   -0.17138E-05  4688   0.110E-02    0.562E-03
DAV:   6    -0.234006164374E+03   -0.55305E-06   -0.31089E-06  2496   0.462E-03
  69 F= -.23400616E+03 E0= -.23400616E+03  d E =-.296824E-03
 curvature:  -2.40 expect dE=-0.757E-03 dE for cont linesearch -0.120E-04
 ZBRENT: extrapolating
 opt :   1.9716  next Energy=  -234.006180 (dE=-0.312E-03)
 bond charge predicted
       N       E                     dE             d eps       ncg     rms          rms(c)
DAV:   1    -0.234006046432E+03    0.11739E-03   -0.25828E-02  3328   0.429E-01    0.524E-02
DAV:   2    -0.234006183640E+03   -0.13721E-03   -0.15292E-03  4344   0.123E-01    0.215E-02
DAV:   3    -0.234006181908E+03    0.17321E-05   -0.53746E-05  5712   0.227E-02    0.157E-02
DAV:   4    -0.234006180594E+03    0.13141E-05   -0.50112E-06  3544   0.739E-03    0.740E-03
DAV:   5    -0.234006180544E+03    0.50000E-07   -0.48841E-06  3072   0.581E-03
  70 F= -.23400618E+03 E0= -.23400618E+03  d E =-.312993E-03
 curvature:  -3.10 expect dE=-0.150E-02 dE for cont linesearch -0.617E-08
 trial: gam= 1.24582 g(F)=  0.477E-03 g(S)=  0.666E-05 ort =-0.138E-05 (trialstep = 0.341E+00)
 search vector abs. value=  0.198E-02
 bond charge predicted
       N       E                     dE             d eps       ncg     rms          rms(c)
DAV:   1    -0.234006229764E+03   -0.49171E-04   -0.34017E-02  3312   0.396E-01    0.499E-02
DAV:   2    -0.234006354442E+03   -0.12468E-03   -0.13542E-03  4608   0.111E-01    0.206E-02
DAV:   3    -0.234006354618E+03   -0.17537E-06   -0.56719E-05  5600   0.203E-02    0.144E-02
DAV:   4    -0.234006353820E+03    0.79794E-06   -0.42932E-06  3048   0.658E-03
  71 F= -.23400635E+03 E0= -.23400635E+03  d E =-.173276E-03
 ZBRENT: can't locate minimum, use default step
 trial-energy change:   -0.000173  1 .order   -0.000171   -0.000164   -0.000178
 step:   1.3642(harm=  1.3642)  dis= 0.00278  next Energy=  -234.006948 (dE=-0.767E-03)
 bond charge predicted
       N       E                     dE             d eps       ncg     rms          rms(c)
DAV:   1    -0.234005824407E+03    0.53021E-03   -0.30523E-01  3312   0.119E+00    0.145E-01
DAV:   2    -0.234006940941E+03   -0.11165E-02   -0.12119E-02  4504   0.329E-01    0.623E-02
DAV:   3    -0.234006944090E+03   -0.31492E-05   -0.52920E-04  5656   0.615E-02    0.438E-02
DAV:   4    -0.234006938108E+03    0.59820E-05   -0.52546E-05  5288   0.194E-02    0.190E-02
DAV:   5    -0.234006936231E+03    0.18767E-05   -0.16840E-05  4704   0.106E-02    0.572E-03
DAV:   6    -0.234006936345E+03   -0.11356E-06   -0.22153E-06  2432   0.405E-03
  72 F= -.23400694E+03 E0= -.23400694E+03  d E =-.755801E-03
 curvature:  -4.32 expect dE=-0.294E-02 dE for cont linesearch -0.831E-03
 ZBRENT: increasing intervall
 opt :   3.4106  next Energy=  -234.008392 (dE=-0.221E-02)
 bond charge predicted
       N       E                     dE             d eps       ncg     rms          rms(c)
DAV:   1    -0.234003753940E+03    0.31823E-02   -0.12214E+00  3320   0.237E+00    0.293E-01
DAV:   2    -0.234008273629E+03   -0.45197E-02   -0.48998E-02  4504   0.662E-01    0.126E-01
DAV:   3    -0.234008300561E+03   -0.26932E-04   -0.22805E-03  5720   0.122E-01    0.886E-02
DAV:   4    -0.234008276726E+03    0.23835E-04   -0.21018E-04  5600   0.392E-02    0.399E-02
DAV:   5    -0.234008268233E+03    0.84927E-05   -0.79027E-05  4816   0.218E-02    0.113E-02
DAV:   6    -0.234008269398E+03   -0.11644E-05   -0.13448E-05  4208   0.820E-03    0.102E-02
DAV:   7    -0.234008269179E+03    0.21832E-06   -0.14918E-06  2056   0.398E-03
  73 F= -.23400827E+03 E0= -.23400827E+03  d E =-.208864E-02
 curvature:  -7.56 expect dE=-0.112E-01 dE for cont linesearch -0.136E-02
 ZBRENT: increasing intervall
 opt :   7.5033  next Energy=  -234.010634 (dE=-0.445E-02)
 bond charge predicted
       N       E                     dE             d eps       ncg     rms          rms(c)
DAV:   1    -0.233988433710E+03    0.19836E-01   -0.48663E+00  3328   0.474E+00    0.586E-01
DAV:   2    -0.234007148718E+03   -0.18715E-01   -0.20287E-01  4536   0.132E+00    0.249E-01
DAV:   3    -0.234007414266E+03   -0.26555E-03   -0.10532E-02  5760   0.242E-01    0.179E-01
DAV:   4    -0.234007305529E+03    0.10874E-03   -0.80237E-04  5544   0.788E-02    0.842E-02
DAV:   5    -0.234007260899E+03    0.44631E-04   -0.36792E-04  4736   0.470E-02    0.234E-02
DAV:   6    -0.234007268957E+03   -0.80585E-05   -0.79678E-05  5048   0.192E-02    0.209E-02
DAV:   7    -0.234007268496E+03    0.46112E-06   -0.12884E-05  5008   0.806E-03    0.102E-02
DAV:   8    -0.234007268628E+03   -0.13194E-06   -0.15797E-06  2152   0.414E-03
  74 F= -.23400727E+03 E0= -.23400727E+03  d E =-.108808E-02
 curvature: -13.10 expect dE=-0.508E-01 dE for cont linesearch -0.122E-01
 ZBRENT: bracketing found
 ZBRENT: interpolating
 opt :   4.6632  next Energy=  -234.008643 (dE=-0.246E-02)
 bond charge predicted
       N       E                     dE             d eps       ncg     rms          rms(c)
DAV:   1    -0.234000042255E+03    0.72262E-02   -0.23509E+00  3280   0.330E+00    0.399E-01
DAV:   2    -0.234008815429E+03   -0.87732E-02   -0.95062E-02  4576   0.917E-01    0.173E-01
DAV:   3    -0.234008873686E+03   -0.58257E-04   -0.43803E-03  5712   0.167E-01    0.122E-01
DAV:   4    -0.234008825769E+03    0.47917E-04   -0.39644E-04  5488   0.544E-02    0.554E-02
DAV:   5    -0.234008811941E+03    0.13828E-04   -0.16025E-04  4856   0.310E-02    0.152E-02
DAV:   6    -0.234008815164E+03   -0.32233E-05   -0.26754E-05  4616   0.116E-02    0.144E-02
DAV:   7    -0.234008815242E+03   -0.77573E-07   -0.41953E-06  3064   0.536E-03
  75 F= -.23400882E+03 E0= -.23400882E+03  d E =-.263470E-02
 curvature:  -0.40 expect dE=-0.715E-03 dE for cont linesearch -0.777E-05
 ZBRENT: interpolating
 opt :   5.1947  next Energy=  -234.008874 (dE=-0.269E-02)
 bond charge predicted
       N       E                     dE             d eps       ncg     rms          rms(c)
DAV:   1    -0.234008552411E+03    0.26275E-03   -0.82451E-02  3320   0.617E-01    0.734E-02
DAV:   2    -0.234008854429E+03   -0.30202E-03   -0.32589E-03  4544   0.172E-01    0.336E-02
DAV:   3    -0.234008853989E+03    0.44037E-06   -0.12828E-04  5640   0.312E-02    0.238E-02
DAV:   4    -0.234008851742E+03    0.22472E-05   -0.13124E-05  4824   0.995E-03    0.104E-02
DAV:   5    -0.234008851056E+03    0.68615E-06   -0.41426E-06  3008   0.547E-03
  76 F= -.23400885E+03 E0= -.23400885E+03  d E =-.267051E-02
 curvature:  -3.03 expect dE=-0.582E-02 dE for cont linesearch -0.536E-05
 trial: gam= 3.69006 g(F)=  0.192E-02 g(S)=  0.251E-05 ort =-0.591E-04 (trialstep = 0.913E-01)
 search vector abs. value=  0.284E-01
 bond charge predicted
       N       E                     dE             d eps       ncg     rms          rms(c)
DAV:   1    -0.234008865866E+03   -0.14125E-04   -0.36800E-02  3264   0.381E-01    0.447E-02
[...]
Note: The following floating-point exceptions are signalling: IEEE_INVALID_FLAG IEEE_UNDERFLOW_FLAG IEEE_DENORMAL
Note: The following floating-point exceptions are signalling: IEEE_INVALID_FLAG IEEE_UNDERFLOW_FLAG IEEE_DENORMAL
Note: The following floating-point exceptions are signalling: IEEE_INVALID_FLAG IEEE_UNDERFLOW_FLAG IEEE_DENORMAL
Note: The following floating-point exceptions are signalling: IEEE_INVALID_FLAG IEEE_UNDERFLOW_FLAG IEEE_DENORMAL
Note: The following floating-point exceptions are signalling: IEEE_INVALID_FLAG IEEE_UNDERFLOW_FLAG IEEE_DENORMAL
Note: The following floating-point exceptions are signalling: IEEE_INVALID_FLAG IEEE_UNDERFLOW_FLAG IEEE_DENORMAL
Note: The following floating-point exceptions are signalling: IEEE_INVALID_FLAG IEEE_UNDERFLOW_FLAG IEEE_DENORMAL
Note: The following floating-point exceptions are signalling: IEEE_INVALID_FLAG IEEE_UNDERFLOW_FLAG IEEE_DENORMAL
Note: The following floating-point exceptions are signalling: IEEE_INVALID_FLAG IEEE_UNDERFLOW_FLAG IEEE_DENORMAL
Note: The following floating-point exceptions are signalling: IEEE_INVALID_FLAG IEEE_UNDERFLOW_FLAG IEEE_DENORMAL
Note: The following floating-point exceptions are signalling: IEEE_INVALID_FLAG IEEE_UNDERFLOW_FLAG IEEE_DENORMAL
Note: The following floating-point exceptions are signalling: IEEE_INVALID_FLAG IEEE_UNDERFLOW_FLAG IEEE_DENORMAL
Note: The following floating-point exceptions are signalling: IEEE_INVALID_FLAG IEEE_UNDERFLOW_FLAG IEEE_DENORMAL
Note: The following floating-point exceptions are signalling: IEEE_INVALID_FLAG IEEE_UNDERFLOW_FLAG IEEE_DENORMAL
Note: The following floating-point exceptions are signalling: IEEE_INVALID_FLAG IEEE_UNDERFLOW_FLAG IEEE_DENORMAL
Note: The following floating-point exceptions are signalling: IEEE_INVALID_FLAG IEEE_UNDERFLOW_FLAG IEEE_DENORMAL
Note: The following floating-point exceptions are signalling: IEEE_INVALID_FLAG IEEE_UNDERFLOW_FLAG IEEE_DENORMAL
Note: The following floating-point exceptions are signalling: IEEE_INVALID_FLAG IEEE_UNDERFLOW_FLAG IEEE_DENORMAL
Note: The following floating-point exceptions are signalling: IEEE_INVALID_FLAG IEEE_UNDERFLOW_FLAG IEEE_DENORMAL
Note: The following floating-point exceptions are signalling: IEEE_INVALID_FLAG IEEE_UNDERFLOW_FLAG IEEE_DENORMAL
Note: The following floating-point exceptions are signalling: IEEE_INVALID_FLAG IEEE_UNDERFLOW_FLAG IEEE_DENORMAL
Note: The following floating-point exceptions are signalling: IEEE_INVALID_FLAG IEEE_UNDERFLOW_FLAG IEEE_DENORMAL
Note: The following floating-point exceptions are signalling: IEEE_INVALID_FLAG IEEE_UNDERFLOW_FLAG IEEE_DENORMAL
Note: The following floating-point exceptions are signalling: IEEE_INVALID_FLAG IEEE_UNDERFLOW_FLAG IEEE_DENORMAL
Note: The following floating-point exceptions are signalling: IEEE_INVALID_FLAG IEEE_UNDERFLOW_FLAG IEEE_DENORMAL
Note: The following floating-point exceptions are signalling: IEEE_INVALID_FLAG IEEE_UNDERFLOW_FLAG IEEE_DENORMAL
Note: The following floating-point exceptions are signalling: IEEE_INVALID_FLAG IEEE_UNDERFLOW_FLAG IEEE_DENORMAL
Note: The following floating-point exceptions are signalling: IEEE_INVALID_FLAG IEEE_UNDERFLOW_FLAG IEEE_DENORMAL
Note: The following floating-point exceptions are signalling: IEEE_INVALID_FLAG IEEE_UNDERFLOW_FLAG IEEE_DENORMAL
Note: The following floating-point exceptions are signalling: IEEE_INVALID_FLAG IEEE_UNDERFLOW_FLAG IEEE_DENORMAL
Note: The following floating-point exceptions are signalling: IEEE_INVALID_FLAG IEEE_UNDERFLOW_FLAG IEEE_DENORMAL
Note: The following floating-point exceptions are signalling: IEEE_INVALID_FLAG IEEE_UNDERFLOW_FLAG IEEE_DENORMAL
Note: The following floating-point exceptions are signalling: IEEE_INVALID_FLAG IEEE_UNDERFLOW_FLAG IEEE_DENORMAL
Note: The following floating-point exceptions are signalling: IEEE_INVALID_FLAG IEEE_UNDERFLOW_FLAG IEEE_DENORMAL
Note: The following floating-point exceptions are signalling: IEEE_INVALID_FLAG IEEE_UNDERFLOW_FLAG IEEE_DENORMAL
Note: The following floating-point exceptions are signalling: IEEE_INVALID_FLAG IEEE_UNDERFLOW_FLAG IEEE_DENORMAL
Note: The following floating-point exceptions are signalling: IEEE_INVALID_FLAG IEEE_UNDERFLOW_FLAG IEEE_DENORMAL
Note: The following floating-point exceptions are signalling: IEEE_INVALID_FLAG IEEE_UNDERFLOW_FLAG IEEE_DENORMAL
Note: The following floating-point exceptions are signalling: IEEE_INVALID_FLAG IEEE_UNDERFLOW_FLAG IEEE_DENORMAL
Note: The following floating-point exceptions are signalling: IEEE_INVALID_FLAG IEEE_UNDERFLOW_FLAG IEEE_DENORMAL
Note: The following floating-point exceptions are signalling: IEEE_INVALID_FLAG IEEE_UNDERFLOW_FLAG IEEE_DENORMAL
Note: The following floating-point exceptions are signalling: IEEE_INVALID_FLAG IEEE_UNDERFLOW_FLAG IEEE_DENORMAL
Note: The following floating-point exceptions are signalling: IEEE_INVALID_FLAG IEEE_UNDERFLOW_FLAG IEEE_DENORMAL
Note: The following floating-point exceptions are signalling: IEEE_INVALID_FLAG IEEE_UNDERFLOW_FLAG IEEE_DENORMAL
Note: The following floating-point exceptions are signalling: IEEE_INVALID_FLAG IEEE_UNDERFLOW_FLAG IEEE_DENORMAL
Note: The following floating-point exceptions are signalling: IEEE_INVALID_FLAG IEEE_UNDERFLOW_FLAG IEEE_DENORMAL
Note: The following floating-point exceptions are signalling: IEEE_INVALID_FLAG IEEE_UNDERFLOW_FLAG IEEE_DENORMAL
Note: The following floating-point exceptions are signalling: IEEE_INVALID_FLAG IEEE_UNDERFLOW_FLAG IEEE_DENORMAL
Note: The following floating-point exceptions are signalling: IEEE_INVALID_FLAG IEEE_UNDERFLOW_FLAG IEEE_DENORMAL
Note: The following floating-point exceptions are signalling: IEEE_INVALID_FLAG IEEE_UNDERFLOW_FLAG IEEE_DENORMAL
Note: The following floating-point exceptions are signalling: IEEE_INVALID_FLAG IEEE_UNDERFLOW_FLAG IEEE_DENORMAL
Note: The following floating-point exceptions are signalling: IEEE_INVALID_FLAG IEEE_UNDERFLOW_FLAG IEEE_DENORMAL
Note: The following floating-point exceptions are signalling: IEEE_INVALID_FLAG IEEE_UNDERFLOW_FLAG IEEE_DENORMAL
Note: The following floating-point exceptions are signalling: IEEE_INVALID_FLAG IEEE_UNDERFLOW_FLAG IEEE_DENORMAL
Note: The following floating-point exceptions are signalling: IEEE_INVALID_FLAG IEEE_UNDERFLOW_FLAG IEEE_DENORMAL
Note: The following floating-point exceptions are signalling: IEEE_INVALID_FLAG IEEE_UNDERFLOW_FLAG IEEE_DENORMAL
Note: The following floating-point exceptions are signalling: IEEE_INVALID_FLAG IEEE_UNDERFLOW_FLAG IEEE_DENORMAL
Note: The following floating-point exceptions are signalling: IEEE_INVALID_FLAG IEEE_UNDERFLOW_FLAG IEEE_DENORMAL
Note: The following floating-point exceptions are signalling: IEEE_INVALID_FLAG IEEE_UNDERFLOW_FLAG IEEE_DENORMAL
Note: The following floating-point exceptions are signalling: IEEE_INVALID_FLAG IEEE_UNDERFLOW_FLAG IEEE_DENORMAL
Note: The following floating-point exceptions are signalling: IEEE_INVALID_FLAG IEEE_UNDERFLOW_FLAG IEEE_DENORMAL
Note: The following floating-point exceptions are signalling: IEEE_INVALID_FLAG IEEE_UNDERFLOW_FLAG IEEE_DENORMAL
Note: The following floating-point exceptions are signalling: IEEE_INVALID_FLAG IEEE_UNDERFLOW_FLAG IEEE_DENORMAL
Note: The following floating-point exceptions are signalling: IEEE_INVALID_FLAG IEEE_UNDERFLOW_FLAG IEEE_DENORMAL
Note: The following floating-point exceptions are signalling: IEEE_INVALID_FLAG IEEE_UNDERFLOW_FLAG IEEE_DENORMAL
Note: The following floating-point exceptions are signalling: IEEE_INVALID_FLAG IEEE_UNDERFLOW_FLAG IEEE_DENORMAL
Note: The following floating-point exceptions are signalling: IEEE_INVALID_FLAG IEEE_UNDERFLOW_FLAG IEEE_DENORMAL
Note: The following floating-point exceptions are signalling: IEEE_INVALID_FLAG IEEE_UNDERFLOW_FLAG IEEE_DENORMAL
Note: The following floating-point exceptions are signalling: IEEE_INVALID_FLAG IEEE_UNDERFLOW_FLAG IEEE_DENORMAL
Note: The following floating-point exceptions are signalling: IEEE_INVALID_FLAG IEEE_UNDERFLOW_FLAG IEEE_DENORMAL
Note: The following floating-point exceptions are signalling: IEEE_INVALID_FLAG IEEE_UNDERFLOW_FLAG IEEE_DENORMAL
Note: The following floating-point exceptions are signalling: IEEE_INVALID_FLAG IEEE_UNDERFLOW_FLAG IEEE_DENORMAL
Note: The following floating-point exceptions are signalling: IEEE_INVALID_FLAG IEEE_UNDERFLOW_FLAG IEEE_DENORMAL
Note: The following floating-point exceptions are signalling: IEEE_INVALID_FLAG IEEE_UNDERFLOW_FLAG IEEE_DENORMAL
Note: The following floating-point exceptions are signalling: IEEE_INVALID_FLAG IEEE_UNDERFLOW_FLAG IEEE_DENORMAL
Note: The following floating-point exceptions are signalling: IEEE_INVALID_FLAG IEEE_UNDERFLOW_FLAG IEEE_DENORMAL
Note: The following floating-point exceptions are signalling: IEEE_INVALID_FLAG IEEE_UNDERFLOW_FLAG IEEE_DENORMAL
Note: The following floating-point exceptions are signalling: IEEE_INVALID_FLAG IEEE_UNDERFLOW_FLAG IEEE_DENORMAL
Note: The following floating-point exceptions are signalling: IEEE_INVALID_FLAG IEEE_UNDERFLOW_FLAG IEEE_DENORMAL
Note: The following floating-point exceptions are signalling: IEEE_INVALID_FLAG IEEE_UNDERFLOW_FLAG IEEE_DENORMAL
Note: The following floating-point exceptions are signalling: IEEE_INVALID_FLAG IEEE_UNDERFLOW_FLAG IEEE_DENORMAL
Note: The following floating-point exceptions are signalling: IEEE_INVALID_FLAG IEEE_UNDERFLOW_FLAG IEEE_DENORMAL
Note: The following floating-point exceptions are signalling: IEEE_INVALID_FLAG IEEE_UNDERFLOW_FLAG IEEE_DENORMAL
Note: The following floating-point exceptions are signalling: IEEE_INVALID_FLAG IEEE_UNDERFLOW_FLAG IEEE_DENORMAL
Note: The following floating-point exceptions are signalling: IEEE_INVALID_FLAG IEEE_UNDERFLOW_FLAG IEEE_DENORMAL
Note: The following floating-point exceptions are signalling: IEEE_INVALID_FLAG IEEE_UNDERFLOW_FLAG IEEE_DENORMAL
Note: The following floating-point exceptions are signalling: IEEE_INVALID_FLAG IEEE_UNDERFLOW_FLAG IEEE_DENORMAL
Note: The following floating-point exceptions are signalling: IEEE_INVALID_FLAG IEEE_UNDERFLOW_FLAG IEEE_DENORMAL
Note: The following floating-point exceptions are signalling: IEEE_INVALID_FLAG IEEE_UNDERFLOW_FLAG IEEE_DENORMAL
Note: The following floating-point exceptions are signalling: IEEE_INVALID_FLAG IEEE_UNDERFLOW_FLAG IEEE_DENORMAL
Note: The following floating-point exceptions are signalling: IEEE_INVALID_FLAG IEEE_UNDERFLOW_FLAG IEEE_DENORMAL
Note: The following floating-point exceptions are signalling: IEEE_INVALID_FLAG IEEE_UNDERFLOW_FLAG IEEE_DENORMAL
Note: The following floating-point exceptions are signalling: IEEE_INVALID_FLAG IEEE_UNDERFLOW_FLAG IEEE_DENORMAL
Note: The following floating-point exceptions are signalling: IEEE_INVALID_FLAG IEEE_UNDERFLOW_FLAG IEEE_DENORMAL
Note: The following floating-point exceptions are signalling: IEEE_INVALID_FLAG IEEE_UNDERFLOW_FLAG IEEE_DENORMAL
Note: The following floating-point exceptions are signalling: IEEE_INVALID_FLAG IEEE_UNDERFLOW_FLAG IEEE_DENORMAL
Note: The following floating-point exceptions are signalling: IEEE_INVALID_FLAG IEEE_UNDERFLOW_FLAG IEEE_DENORMAL
Note: The following floating-point exceptions are signalling: IEEE_INVALID_FLAG IEEE_UNDERFLOW_FLAG IEEE_DENORMAL
Note: The following floating-point exceptions are signalling: IEEE_INVALID_FLAG IEEE_UNDERFLOW_FLAG IEEE_DENORMAL
Note: The following floating-point exceptions are signalling: IEEE_INVALID_FLAG IEEE_UNDERFLOW_FLAG IEEE_DENORMAL
Note: The following floating-point exceptions are signalling: IEEE_INVALID_FLAG IEEE_UNDERFLOW_FLAG IEEE_DENORMAL
Note: The following floating-point exceptions are signalling: IEEE_INVALID_FLAG IEEE_UNDERFLOW_FLAG IEEE_DENORMAL
Note: The following floating-point exceptions are signalling: IEEE_INVALID_FLAG IEEE_UNDERFLOW_FLAG IEEE_DENORMAL
Note: The following floating-point exceptions are signalling: IEEE_INVALID_FLAG IEEE_UNDERFLOW_FLAG IEEE_DENORMAL
Note: The following floating-point exceptions are signalling: IEEE_INVALID_FLAG IEEE_UNDERFLOW_FLAG IEEE_DENORMAL
Note: The following floating-point exceptions are signalling: IEEE_INVALID_FLAG IEEE_UNDERFLOW_FLAG IEEE_DENORMAL
Note: The following floating-point exceptions are signalling: IEEE_INVALID_FLAG IEEE_UNDERFLOW_FLAG IEEE_DENORMAL
Note: The following floating-point exceptions are signalling: IEEE_INVALID_FLAG IEEE_UNDERFLOW_FLAG IEEE_DENORMAL
Note: The following floating-point exceptions are signalling: IEEE_INVALID_FLAG IEEE_UNDERFLOW_FLAG IEEE_DENORMAL
Note: The following floating-point exceptions are signalling: IEEE_INVALID_FLAG IEEE_UNDERFLOW_FLAG IEEE_DENORMAL
Note: The following floating-point exceptions are signalling: IEEE_INVALID_FLAG IEEE_UNDERFLOW_FLAG IEEE_DENORMAL
Note: The following floating-point exceptions are signalling: IEEE_INVALID_FLAG IEEE_UNDERFLOW_FLAG IEEE_DENORMAL
Note: The following floating-point exceptions are signalling: IEEE_INVALID_FLAG IEEE_UNDERFLOW_FLAG IEEE_DENORMAL
Note: The following floating-point exceptions are signalling: IEEE_INVALID_FLAG IEEE_UNDERFLOW_FLAG IEEE_DENORMAL
Note: The following floating-point exceptions are signalling: IEEE_INVALID_FLAG IEEE_UNDERFLOW_FLAG IEEE_DENORMAL
Note: The following floating-point exceptions are signalling: IEEE_INVALID_FLAG IEEE_UNDERFLOW_FLAG IEEE_DENORMAL
Note: The following floating-point exceptions are signalling: IEEE_INVALID_FLAG IEEE_UNDERFLOW_FLAG IEEE_DENORMAL
Note: The following floating-point exceptions are signalling: IEEE_INVALID_FLAG IEEE_UNDERFLOW_FLAG IEEE_DENORMAL
Note: The following floating-point exceptions are signalling: IEEE_INVALID_FLAG IEEE_UNDERFLOW_FLAG IEEE_DENORMAL
Note: The following floating-point exceptions are signalling: IEEE_INVALID_FLAG IEEE_UNDERFLOW_FLAG IEEE_DENORMAL
Note: The following floating-point exceptions are signalling: IEEE_INVALID_FLAG IEEE_UNDERFLOW_FLAG IEEE_DENORMAL
Note: The following floating-point exceptions are signalling: IEEE_INVALID_FLAG IEEE_UNDERFLOW_FLAG IEEE_DENORMAL
Note: The following floating-point exceptions are signalling: IEEE_INVALID_FLAG IEEE_UNDERFLOW_FLAG IEEE_DENORMAL
Note: The following floating-point exceptions are signalling: IEEE_INVALID_FLAG IEEE_UNDERFLOW_FLAG IEEE_DENORMAL
Note: The following floating-point exceptions are signalling: IEEE_INVALID_FLAG IEEE_UNDERFLOW_FLAG IEEE_DENORMAL
Note: The following floating-point exceptions are signalling: IEEE_INVALID_FLAG IEEE_UNDERFLOW_FLAG IEEE_DENORMAL
Note: The following floating-point exceptions are signalling: IEEE_INVALID_FLAG IEEE_UNDERFLOW_FLAG IEEE_DENORMAL
Note: The following floating-point exceptions are signalling: IEEE_INVALID_FLAG IEEE_UNDERFLOW_FLAG IEEE_DENORMAL
Note: The following floating-point exceptions are signalling: IEEE_INVALID_FLAG IEEE_UNDERFLOW_FLAG IEEE_DENORMAL
Note: The following floating-point exceptions are signalling: IEEE_INVALID_FLAG IEEE_UNDERFLOW_FLAG IEEE_DENORMAL
Note: The following floating-point exceptions are signalling: IEEE_INVALID_FLAG IEEE_UNDERFLOW_FLAG IEEE_DENORMAL
Note: The following floating-point exceptions are signalling: IEEE_INVALID_FLAG IEEE_UNDERFLOW_FLAG IEEE_DENORMAL
Note: The following floating-point exceptions are signalling: IEEE_INVALID_FLAG IEEE_UNDERFLOW_FLAG IEEE_DENORMAL
Note: The following floating-point exceptions are signalling: IEEE_INVALID_FLAG IEEE_UNDERFLOW_FLAG IEEE_DENORMAL
Note: The following floating-point exceptions are signalling: IEEE_INVALID_FLAG IEEE_UNDERFLOW_FLAG IEEE_DENORMAL
Note: The following floating-point exceptions are signalling: IEEE_INVALID_FLAG IEEE_UNDERFLOW_FLAG IEEE_DENORMAL
Note: The following floating-point exceptions are signalling: IEEE_INVALID_FLAG IEEE_UNDERFLOW_FLAG IEEE_DENORMAL
Note: The following floating-point exceptions are signalling: IEEE_INVALID_FLAG IEEE_UNDERFLOW_FLAG IEEE_DENORMAL
Note: The following floating-point exceptions are signalling: IEEE_INVALID_FLAG IEEE_UNDERFLOW_FLAG IEEE_DENORMAL
Note: The following floating-point exceptions are signalling: IEEE_INVALID_FLAG IEEE_UNDERFLOW_FLAG IEEE_DENORMAL
Note: The following floating-point exceptions are signalling: IEEE_INVALID_FLAG IEEE_UNDERFLOW_FLAG IEEE_DENORMAL
Note: The following floating-point exceptions are signalling: IEEE_INVALID_FLAG IEEE_UNDERFLOW_FLAG IEEE_DENORMAL
Note: The following floating-point exceptions are signalling: IEEE_INVALID_FLAG IEEE_UNDERFLOW_FLAG IEEE_DENORMAL
Note: The following floating-point exceptions are signalling: IEEE_INVALID_FLAG IEEE_UNDERFLOW_FLAG IEEE_DENORMAL
Note: The following floating-point exceptions are signalling: IEEE_INVALID_FLAG IEEE_UNDERFLOW_FLAG IEEE_DENORMAL
Note: The following floating-point exceptions are signalling: IEEE_INVALID_FLAG IEEE_UNDERFLOW_FLAG IEEE_DENORMAL
Note: The following floating-point exceptions are signalling: IEEE_INVALID_FLAG IEEE_UNDERFLOW_FLAG IEEE_DENORMAL
Note: The following floating-point exceptions are signalling: IEEE_INVALID_FLAG IEEE_UNDERFLOW_FLAG IEEE_DENORMAL
Note: The following floating-point exceptions are signalling: IEEE_INVALID_FLAG IEEE_UNDERFLOW_FLAG IEEE_DENORMAL
Note: The following floating-point exceptions are signalling: IEEE_INVALID_FLAG IEEE_UNDERFLOW_FLAG IEEE_DENORMAL
Note: The following floating-point exceptions are signalling: IEEE_INVALID_FLAG IEEE_UNDERFLOW_FLAG IEEE_DENORMAL
Note: The following floating-point exceptions are signalling: IEEE_INVALID_FLAG IEEE_UNDERFLOW_FLAG IEEE_DENORMAL
Note: The following floating-point exceptions are signalling: IEEE_INVALID_FLAG IEEE_UNDERFLOW_FLAG IEEE_DENORMAL
Note: The following floating-point exceptions are signalling: IEEE_INVALID_FLAG IEEE_UNDERFLOW_FLAG IEEE_DENORMAL
Note: The following floating-point exceptions are signalling: IEEE_INVALID_FLAG IEEE_UNDERFLOW_FLAG IEEE_DENORMAL
Note: The following floating-point exceptions are signalling: IEEE_INVALID_FLAG IEEE_UNDERFLOW_FLAG IEEE_DENORMAL
Note: The following floating-point exceptions are signalling: IEEE_INVALID_FLAG IEEE_UNDERFLOW_FLAG IEEE_DENORMAL
Note: The following floating-point exceptions are signalling: IEEE_INVALID_FLAG IEEE_UNDERFLOW_FLAG IEEE_DENORMAL
Note: The following floating-point exceptions are signalling: IEEE_INVALID_FLAG IEEE_UNDERFLOW_FLAG IEEE_DENORMAL
Note: The following floating-point exceptions are signalling: IEEE_INVALID_FLAG IEEE_UNDERFLOW_FLAG IEEE_DENORMAL
Note: The following floating-point exceptions are signalling: IEEE_INVALID_FLAG IEEE_UNDERFLOW_FLAG IEEE_DENORMAL
Note: The following floating-point exceptions are signalling: IEEE_INVALID_FLAG IEEE_UNDERFLOW_FLAG IEEE_DENORMAL
Note: The following floating-point exceptions are signalling: IEEE_INVALID_FLAG IEEE_UNDERFLOW_FLAG IEEE_DENORMAL
Note: The following floating-point exceptions are signalling: IEEE_INVALID_FLAG IEEE_UNDERFLOW_FLAG IEEE_DENORMAL
Note: The following floating-point exceptions are signalling: IEEE_INVALID_FLAG IEEE_UNDERFLOW_FLAG IEEE_DENORMAL
Note: The following floating-point exceptions are signalling: IEEE_INVALID_FLAG IEEE_UNDERFLOW_FLAG IEEE_DENORMAL
Note: The following floating-point exceptions are signalling: IEEE_INVALID_FLAG IEEE_UNDERFLOW_FLAG IEEE_DENORMAL
Note: The following floating-point exceptions are signalling: IEEE_INVALID_FLAG IEEE_UNDERFLOW_FLAG IEEE_DENORMAL
Note: The following floating-point exceptions are signalling: IEEE_INVALID_FLAG IEEE_UNDERFLOW_FLAG IEEE_DENORMAL
Note: The following floating-point exceptions are signalling: IEEE_INVALID_FLAG IEEE_UNDERFLOW_FLAG IEEE_DENORMAL
Note: The following floating-point exceptions are signalling: IEEE_INVALID_FLAG IEEE_UNDERFLOW_FLAG IEEE_DENORMAL
Note: The following floating-point exceptions are signalling: IEEE_INVALID_FLAG IEEE_UNDERFLOW_FLAG IEEE_DENORMAL
Note: The following floating-point exceptions are signalling: IEEE_INVALID_FLAG IEEE_UNDERFLOW_FLAG IEEE_DENORMAL
Note: The following floating-point exceptions are signalling: IEEE_INVALID_FLAG IEEE_UNDERFLOW_FLAG IEEE_DENORMAL
Note: The following floating-point exceptions are signalling: IEEE_INVALID_FLAG IEEE_UNDERFLOW_FLAG IEEE_DENORMAL
