LAMMPS (7 Aug 2019)
  using 1 OpenMP thread(s) per MPI task

# Input written to comply with LAMMPS 2017-08-11 00:00:00

# Atomic Configuration
units           metal
boundary        p p p
box             tilt large
atom_style      charge
read_data       monoclinic_9x9x9.lmp
  triclinic box = (0 0 0) to (92.5227 92.8198 92.5839) with tilt (-0.0952302 -0.293317 -0.265415)
  4 by 8 by 5 MPI processor grid
  reading atoms ...
  39366 atoms
  read_data CPU = 0.124081 secs
group           lithium type 1
12393 atoms in group lithium
group           scandium type 2
3645 atoms in group scandium
group           chloride type 3
23328 atoms in group chloride
variable        T1 equal 500
variable        dt equal 0.001

# Potential Setup
pair_style      buck/coul/long 12.0
pair_coeff      * * 0.0 1.0 0.0
pair_coeff      1 1    360.530000  0.161000   0.000000 # Li Li
pair_coeff      1 3    421.040000  0.344000   0.000000 # Li Cl
pair_coeff      3 3   1227.200000  0.321000  14.530000 # Cl Cl
pair_coeff      2 3  12131.350000  0.250700   0.000000 # Sc Cl

kspace_style    pppm 1e-05

# General Setup
timestep        ${dt}
timestep        0.001

# Thermodynamic Information Output
thermo_style    custom step temp epair emol etotal press lx ly lz fmax cpu cpuremain
thermo          1000

# Intial Atom Velocity
velocity        all create ${T1} 226196 dist gaussian rot yes
velocity        all create 500 226196 dist gaussian rot yes

# Stage 0: npt_equilibriation
restart         0
fix             int all npt aniso 1.0 1.0 $(1000*dt) temp ${T1} ${T1} $(100*dt)
fix             int all npt aniso 1.0 1.0 1 temp ${T1} ${T1} $(100*dt)
fix             int all npt aniso 1.0 1.0 1 temp 500 ${T1} $(100*dt)
fix             int all npt aniso 1.0 1.0 1 temp 500 500 $(100*dt)
fix             int all npt aniso 1.0 1.0 1 temp 500 500 0.10000000000000000555
run             50000
PPPM initialization ...
  using 12-bit tables for long-range coulomb (../kspace.cpp:323)
  G vector (1/distance) = 0.265467
  grid = 81 81 81
  stencil order = 5
  estimated absolute RMS force accuracy = 0.000177575
  estimated relative force accuracy = 1.23319e-05
  using double precision MKL FFT
  3d grid and FFT values/proc = 10557 4374
Neighbor list info ...
  update every 1 steps, delay 10 steps, check yes
  max neighbors/atom: 2000, page size: 100000
  master list distance cutoff = 14
  ghost atom cutoff = 14
  binsize = 7, bins = 14 14 14
  1 neighbor lists, perpetual/occasional/extra = 1 0 0
  (1) pair buck/coul/long, perpetual
      attributes: half, newton on
      pair build: half/bin/newton/tri
      stencil: half/bin/3d/newton/tri
      bin: standard
Per MPI rank memory allocation (min/avg/max) = 4.199 | 4.267 | 4.689 Mbytes
Step Temp E_pair E_mol TotEng Press Lx Ly Lz Fmax CPU CPULeft 
       0          500   -266217.01            0   -263672.85    628.71175    92.522657    92.819769    92.583922    2.7005784            0            0 
    1000    497.81756   -273668.83            0   -271135.78    579.51241    98.458822    98.678776    99.311261    4.4740591     7.097254    347.76545 
    2000    496.80477   -273933.83            0   -271405.93    198.76253     98.45897    99.741254    100.06076    4.6190935    13.998095     335.9543 
    3000    503.52767   -274015.86            0   -271453.75   -25.209007     98.24347    100.50981    99.979582    4.3153469    20.724362    324.68169 
    4000    499.35154   -274121.48            0   -271580.61    97.652593    97.992789    101.04047    99.743643    4.6683535    27.293784    313.87853 
    5000    499.04547   -274171.46            0   -271632.16   -34.291121    97.717652     101.4742    99.658024    3.7775444     33.84649    304.61842 
    6000    498.76044   -274227.16            0    -271689.3   -203.47747    97.449186    101.78952    99.529396    4.0094174    40.995515    300.63378 
    7000    498.84465   -274233.19            0   -271694.91   -15.988858    97.293567    102.09259    99.334335    4.6789217    47.893056    294.20021 
    8000    501.15269   -274256.35            0   -271706.32   -32.245251    97.181593    102.27269    99.466529    3.9872575    54.695048    287.14901 
    9000    502.01388   -274318.73            0   -271764.32   -229.63968    97.089605    102.54591    99.276294    3.9135558    61.361545    279.53593 
   10000     500.3095   -274319.47            0   -271773.73   -38.252755    97.058081    102.75983    99.032464    4.4858873    67.904771    271.61909 
   11000    500.70827   -274341.73            0   -271793.96   -210.91632    96.957682    102.98926    98.962529    4.4228593    74.519248    264.20461 
   12000    502.85766   -274341.42            0   -271782.72   -41.148397    96.843036    103.01073    99.031957    3.9953613    81.750595    258.87689 
   13000    497.20456      -274337            0   -271807.06    285.27471    96.708354    102.98489     98.95384    4.2183515    88.506427    251.90291 
   14000    497.28211   -274384.57            0   -271854.24    145.93027    96.581994    103.19608    98.819135    4.0849781    95.433327    245.39999 
   15000    500.24705   -274391.53            0   -271846.11   -48.825043    96.538126    103.11842    98.890495    4.3761273    102.16069    238.37495 
   16000    499.84396   -274384.02            0   -271840.65   -47.646095    96.687079    103.03025     98.86612    4.1526464    108.57612    230.72425 
   17000    504.82222   -274400.01            0   -271831.31    146.60806    96.496908    103.16552    98.720502    3.9739181     115.1747    223.57442 
   18000    495.26185   -274420.99            0   -271900.94   -304.55076    96.609374    103.27707     98.72301    4.8805194     122.3843    217.57209 
   19000    503.18848   -274414.77            0   -271854.38   -73.493863     96.64508    103.35393     98.63987    4.3561938    128.91084    210.32822 
   20000    499.73729   -274432.93            0    -271890.1   -20.515719    96.536414    103.30425    98.703153    3.7400865    135.81869    203.72803 
   21000    500.69622   -274424.25            0   -271876.54    68.657316    96.476869    103.28973    98.792005    4.0077219    142.29914    196.50834 
   22000     498.1935   -274458.93            0   -271923.96    315.63592    96.440683    103.18068    98.646352    4.4546524    148.87107    189.47227 
   23000    499.59283   -274445.63            0   -271903.54    33.710931    96.340351    103.47102    98.704016    4.1645248    155.50644    182.55104 
   24000    498.53115   -274479.32            0   -271942.63   -46.362619    96.154949    103.36068    98.730611    4.4740131    162.70698     176.2659 
   25000    500.42308   -274470.36            0   -271924.05   -50.972115    96.280959     103.3204    98.709319    4.2353202    169.20029    169.20029 
   26000    502.68481   -274477.86            0   -271920.04     -126.189    96.273391    103.35155    98.713789    4.0495891    176.01957    162.47961 
   27000    499.40723   -274445.31            0   -271904.16    133.66449    96.217842    103.41139    98.776839    4.1449909    182.51711    155.47754 
   28000    500.32123   -274462.85            0   -271917.06  -0.69907655    96.217742    103.42866    98.624504    3.8149956    188.86328    148.39258 
   29000    496.63306   -274483.83            0   -271956.79   -62.716634     96.26453    103.35709    98.673707    4.3368073    195.26897    141.40167 
   30000    502.32648   -274476.29            0   -271920.29   -18.334066    96.118212    103.58297    98.636167    4.5513278     202.3292    134.88614 
   31000    499.32311   -274500.32            0   -271959.61    170.31785    96.106247    103.42476    98.698661    4.8708534    209.08612    128.14956 
   32000    506.10479   -274505.73            0    -271930.5   -103.04989     96.15096    103.52371    98.587923    3.7606474    215.94964    121.47167 
   33000    503.53348   -274515.27            0   -271953.12   -115.40064    95.955542    103.53881    98.596541    3.6358274     222.4823     114.6121 
   34000    497.47523    -274494.7            0   -271963.38   -333.37713    96.002272    103.65911    98.582688    4.1365642    228.91814    107.72619 
   35000    497.79535   -274518.35            0   -271985.41    -266.6643    95.937089    103.65472    98.541934    3.9720496    235.36276    100.86976 
   36000    502.32536   -274521.92            0   -271965.93   -142.18831    95.959304    103.51332    98.608225     3.796483    242.44639    94.284708 
   37000    503.22344   -274528.93            0   -271968.37    314.27344    95.829628    103.52248    98.552159     3.659988    249.02258    87.494421 
   38000    503.54335   -274523.55            0   -271961.36    295.72838    95.944812    103.55571    98.407834    4.0997418    255.88038    80.804331 
   39000    501.04335   -274520.32            0   -271970.85    37.438677    96.037754    103.50625    98.390346    3.9954779    262.30356    73.983056 
   40000    501.66214   -274543.79            0   -271991.17     124.0208     95.90171    103.61075    98.426514    4.0002104    268.76422    67.191055 
   41000    503.97424   -274542.43            0   -271978.05   -6.8154703    96.059187    103.58121    98.446682    3.8063702    275.22784    60.415867 
   42000    494.05983   -274541.26            0   -272027.33   -193.76849    95.992478    103.34442    98.538868    3.8851851    282.40768    53.791938 
   43000    501.52212   -274547.87            0   -271995.96    -70.46521    96.017827     103.4799    98.328149    3.9655001    289.00039    47.046575 
   44000    500.07686   -274536.32            0   -271991.77    32.664469     96.03191    103.45549    98.255155    4.0944965    295.82951    40.340388 
   45000    497.85932   -274548.64            0   -272015.37    253.65332    96.015987    103.39767    98.286589    4.5150652    302.30062    33.588958 
   46000    502.74306   -274548.86            0   -271990.74   -237.34412    95.930853    103.54442    98.313977    4.4145396    308.82085    26.853987 
   47000    498.26534      -274532            0   -271996.67    212.21629    96.006608    103.57497    98.222345    4.1193033    315.19965    20.119127 
   48000     498.3073   -274561.38            0   -272025.83   -149.94214    96.004575     103.3747    98.221694    3.8599054    322.32338    13.430141 
   49000     498.6617   -274553.83            0   -272016.48    10.513836    95.909098    103.46713    98.223225    4.1448349    329.14229    6.7171896 
   50000    499.17822    -274548.6            0   -272008.62   -18.659922    95.858563    103.79658    98.092949    3.6543904    336.04737            0 
Loop time of 336.047 on 160 procs for 50000 steps with 39366 atoms

Performance: 12.855 ns/day, 1.867 hours/ns, 148.789 timesteps/s
99.0% CPU use with 160 MPI tasks x 1 OpenMP threads

MPI task timing breakdown:
Section |  min time  |  avg time  |  max time  |%varavg| %total
---------------------------------------------------------------
Pair    | 71.874     | 76.273     | 83.349     |  24.5 | 22.70
Kspace  | 179.81     | 187.71     | 193        |  16.7 | 55.86
Neigh   | 3.1442     | 3.3445     | 3.5624     |   5.2 |  1.00
Comm    | 30.816     | 33.283     | 34.815     |  16.4 |  9.90
Output  | 0.0032334  | 0.0032991  | 0.0047801  |   0.2 |  0.00
Modify  | 26.31      | 27.923     | 35.133     |  29.1 |  8.31
Other   |            | 7.513      |            |       |  2.24

Nlocal:    246.037 ave 264 max 228 min
Histogram: 1 8 10 28 27 40 25 11 8 2
Nghost:    3846.41 ave 3892 max 3758 min
Histogram: 1 2 4 12 14 20 32 32 28 15
Neighs:    56917.2 ave 62446 max 51179 min
Histogram: 1 5 12 29 29 36 29 12 5 2

Total # of neighbors = 9106751
Ave neighs/atom = 231.335
Neighbor list builds = 1665
Dangerous builds = 0

# Stage 1: nvt_equilibriation
unfix           int
restart         0
fix             int all nvt temp ${T1} ${T1} $(100*dt)
fix             int all nvt temp 500 ${T1} $(100*dt)
fix             int all nvt temp 500 500 $(100*dt)
fix             int all nvt temp 500 500 0.10000000000000000555
run             6000000
PPPM initialization ...
  using 12-bit tables for long-range coulomb (../kspace.cpp:323)
  G vector (1/distance) = 0.266818
  grid = 90 90 90
  stencil order = 5
  estimated absolute RMS force accuracy = 0.000140562
  estimated relative force accuracy = 9.76151e-06
  using double precision MKL FFT
  3d grid and FFT values/proc = 13050 4968
Per MPI rank memory allocation (min/avg/max) = 4.418 | 4.517 | 4.882 Mbytes
Step Temp E_pair E_mol TotEng Press Lx Ly Lz Fmax CPU CPULeft 
   50000    499.17822   -274548.65            0   -272008.67   -19.251129    95.858563    103.79658    98.092949    3.6545578            0            0 
   51000    499.94266    -274559.1            0   -272015.23    -76.05054    95.858563    103.79658    98.092949    3.6288237    6.4942729    38959.149 
   52000    499.58571   -274565.56            0   -272023.51    42.892482    95.858563    103.79658    98.092949    3.9541555    13.134337    39389.879 
   53000    501.68981   -274543.93            0   -271991.17   -102.40828    95.858563    103.79658    98.092949    5.1259306    19.730595    39441.462 
   54000    501.12454   -274565.38            0   -272015.49    8.3582336    95.858563    103.79658    98.092949    4.2983119    26.719294    40052.223 
   55000    500.18046   -274574.76            0   -272029.68      24.9293    95.858563    103.79658    98.092949    3.6714573    33.294942    39920.636 
   56000    503.08034   -274560.59            0   -272000.76    243.31345    95.858563    103.79658    98.092949    4.2628303    40.086346    40046.261 
   57000    500.03032   -274561.57            0   -272017.26   -147.58521    95.858563    103.79658    98.092949    4.0883288    46.680344    39965.044 
   58000    500.32523   -274580.59            0   -272034.77   -55.119964    95.858563    103.79658    98.092949    3.8998821    53.280437    39907.048 
   59000    502.29729   -274583.72            0   -272027.86     54.44993    95.858563    103.79658    98.092949    4.3821106    59.810383    39813.779 
   60000    502.57136   -274599.78            0   -272042.54   -138.09017    95.858563    103.79658    98.092949    3.9235835    66.932982    40092.857 
   61000    499.30604   -274573.78            0   -272033.14   -350.43012    95.858563    103.79658    98.092949    4.1797706    73.562212    40051.281 
   62000    497.00274   -274575.46            0   -272046.54   -323.76273    95.858563    103.79658    98.092949    4.1456735    80.413176    40126.175 
   63000    496.32964   -274588.41            0   -272062.93   -298.53424    95.858563    103.79658    98.092949    4.0734095    86.888825    40015.646 
   64000    499.90093   -274589.71            0   -272046.05   -222.09327    95.858563    103.79658    98.092949    4.3456093    93.382933    39927.874 
   65000    501.33163    -274605.1            0   -272054.16   -180.56792    95.858563    103.79658    98.092949    3.7906108       100.04    39915.961 
   66000    502.35718   -274573.61            0   -272017.45   -280.25479    95.858563    103.79658    98.092949    4.7362533    106.99528    40016.237 
   67000    498.27548   -274581.34            0   -272045.95    -85.89537    95.858563    103.79658    98.092949    3.8426648    113.68652    40010.968 
   68000    498.31008   -274579.86            0   -272044.29   -149.07612    95.858563    103.79658    98.092949    4.1294187    120.51871    40052.386 
   69000    501.82339    -274586.4            0   -272032.96   -184.13303    95.858563    103.79658    98.092949     4.021393    127.09039    40006.717 
   70000    502.19705   -274586.64            0    -272031.3   -187.62445    95.858563    103.79658    98.092949    4.3980493    133.55227    39932.128 
   71000    504.40803    -274576.8            0   -272010.21   -465.24273    95.858563    103.79658    98.092949    4.4971634    140.19013    39914.132 
   72000    496.95508   -274581.28            0   -272052.61   -445.88815    95.858563    103.79658    98.092949    3.9285496    147.14233    39982.584 
   73000      504.094   -274577.12            0   -272012.13   -368.03428    95.858563    103.79658    98.092949    4.5079097    153.75979     39957.49 
   74000      496.092   -274590.64            0   -272066.37   -370.92196    95.858563    103.79658    98.092949     4.582039    160.53276    39972.658 
   75000    499.71113   -274619.11            0   -272076.42   -463.40358    95.858563    103.79658    98.092949    4.6835703    167.15371    39949.737 
   76000    499.30025   -274573.26            0   -272032.66   -419.44216    95.858563    103.79658    98.092949    3.7687002    173.71534    39914.441 
   77000     502.3907   -274598.72            0   -272042.39   -491.34903    95.858563    103.79658    98.092949    3.9214758    180.30379    39887.205 
   78000    501.24238   -274608.14            0   -272057.65   -234.75509    95.858563    103.79658    98.092949     3.420852     187.2634    39940.608 
   79000    498.28194   -274582.05            0   -272046.63   -198.94489    95.858563    103.79658    98.092949    3.9509662    193.85381    39913.832 
   80000    498.44412   -274604.38            0   -272068.13    -363.7386    95.858563    103.79658    98.092949    4.1531449    200.68222    39935.763 
   81000    504.21414   -274573.56            0   -272007.95   -261.71185    95.858563    103.79658    98.092949    3.7173777    207.33474    39921.971 
   82000    499.81218   -274601.13            0   -272057.92   -435.79063    95.858563    103.79658    98.092949     4.920374    213.87405     39887.51 
   83000    502.51902   -274593.21            0   -272036.23   -629.33147    95.858563    103.79658    98.092949    3.5593707    220.45507    39862.286 
   84000    498.66686   -274584.97            0   -272047.59   -376.89661    95.858563    103.79658    98.092949    4.7567893    227.32773    39889.331 
   85000    498.67811   -274623.43            0   -272085.99   -408.13382    95.858563    103.79658    98.092949    4.2720088    234.12146    39900.986 
   86000    500.37792   -274603.79            0    -272057.7   -565.75009    95.858563    103.79658    98.092949    3.9940581     241.0134    39927.886 
   87000    499.10654   -274594.39            0   -272054.77   -496.35787    95.858563    103.79658    98.092949    4.0071682    247.61252     39905.77 
   88000    496.59871   -274598.79            0   -272071.93   -453.28129    95.858563    103.79658    98.092949    4.8666756    254.13677    39872.721 
   89000    501.93546   -274599.96            0   -272045.95   -364.05026    95.858563    103.79658    98.092949    3.7710174    260.72739     39851.18 
   90000    499.23009   -274629.95            0    -272089.7   -604.88902    95.858563    103.79658    98.092949    3.4614859    267.65296    39880.291 
   91000    501.30755   -274613.61            0    -272062.8   -438.43888    95.858563    103.79658    98.092949    4.5563008    274.20246    39852.987 
   92000    502.47816   -274592.98            0   -272036.21   -478.69926    95.858563    103.79658    98.092949    4.1563271    280.96408    39856.762 
   93000    501.34895   -274597.46            0   -272046.43   -460.30671    95.858563    103.79658    98.092949     3.769676    287.52717    39832.543 
   94000     498.9183   -274619.92            0   -272081.26   -658.40478    95.858563    103.79658    98.092949    4.0878805    294.11012    39811.815 
   95000    503.04942   -274603.77            0   -272044.09   -677.11158    95.858563    103.79658    98.092949    3.7070493    300.70677    39793.529 
   96000    498.38964   -274587.33            0   -272051.36   -514.66023    95.858563    103.79658    98.092949    3.6755981    307.72691    39830.566 
   97000    499.48988   -274606.51            0   -272064.94   -401.02179    95.858563    103.79658    98.092949    4.3280909    314.34785    39815.166 
   98000    498.05708   -274575.54            0   -272041.26   -437.41734    95.858563    103.79658    98.092949    3.7128779    321.18545    39826.997 
   99000    499.79879   -274605.73            0   -272062.59   -246.45633    95.858563    103.79658    98.092949    4.1248289    327.81479    39812.771 
  100000    502.54361   -274607.01            0    -272049.9   -516.87632    95.858563    103.79658    98.092949    3.9180111    334.32794    39785.025 
  101000    499.66497   -274590.53            0   -272048.08   -488.39373    95.858563    103.79658    98.092949    3.6938496    340.92061    39767.386 
  102000    498.91516   -274625.48            0   -272086.84     -623.585    95.858563    103.79658    98.092949    3.6986679    347.88877    39793.124 
  103000    497.75244   -274598.45            0   -272065.73   -522.75321    95.858563    103.79658    98.092949    3.9075416    354.55493    39783.739 
  104000    502.82427   -274605.95            0   -272047.42   -743.18088    95.858563    103.79658    98.092949    4.1938399    361.41096    39795.362 
  105000    500.24598   -274616.68            0   -272071.26   -657.51925    95.858563    103.79658    98.092949    3.9001027    368.22731    39802.025 
  106000    499.33441   -274619.57            0    -272078.8   -520.94591    95.858563    103.79658    98.092949     3.967108    374.71381    39773.195 
  107000    500.63508   -274617.33            0   -272069.93   -580.77477    95.858563    103.79658    98.092949    3.9071137    381.29647    39755.174 
  108000     498.7682   -274610.76            0   -272072.87   -460.11852    95.858563    103.79658    98.092949    3.7487276    388.31657    39782.363 
  109000    498.93266   -274625.86            0   -272087.13   -494.10828    95.858563    103.79658    98.092949     5.060588    394.89478    39763.896 
  110000    499.27765   -274614.42            0   -272073.94   -786.12944    95.858563    103.79658    98.092949    4.2327773    401.74152     39772.41 
  111000    499.98042   -274613.82            0   -272069.76   -628.38127    95.858563    103.79658    98.092949    4.5384694    408.38579    39760.708 
  112000    498.68589   -274636.22            0   -272098.74   -718.13856    95.858563    103.79658    98.092949    4.3100588    414.98965    39745.299 
  113000    498.52082   -274632.26            0   -272095.63   -632.86717    95.858563    103.79658    98.092949    3.6445654    421.73294    39743.309 
  114000    502.24839   -274621.87            0   -272066.27   -611.78927    95.858563    103.79658    98.092949    4.0504745    428.94414    39784.569 
  115000    502.64724   -274615.79            0   -272058.16    -419.3428    95.858563    103.79658    98.092949    3.7842538    435.55942    39769.925 
  116000    501.21882   -274626.05            0   -272075.69   -402.51119    95.858563    103.79658    98.092949    3.7266677    442.35519    39771.753 
  117000    501.10707   -274629.31            0   -272079.52   -588.77518    95.858563    103.79658    98.092949    4.2428756    448.90303    39751.368 
  118000    497.54887    -274617.4            0   -272085.71   -561.89623    95.858563    103.79658    98.092949    3.9947774    455.35468        39723 
  119000    499.23445   -274631.77            0   -272091.51   -816.82539    95.858563    103.79658    98.092949    3.8615167    462.04907    39716.131 
  120000    504.39611   -274609.38            0   -272042.85   -642.72403    95.858563    103.79658    98.092949    3.8466709    469.10682    39740.049 
  121000    498.16446    -274625.1            0   -272090.28   -549.77941    95.858563    103.79658    98.092949    3.7638198    475.69043    39723.501 
  122000    499.68281    -274627.9            0   -272085.35   -511.65523    95.858563    103.79658    98.092949    4.1505885    482.61067    39734.945 
  123000    497.33988   -274625.08            0   -272094.45    -842.8427    95.858563    103.79658    98.092949     3.906508    489.22806    39721.298 
  124000    502.18725   -274631.23            0   -272075.94    -642.8226    95.858563    103.79658    98.092949    4.0098011    495.72814    39698.446 
  125000    498.07013   -274630.29            0   -272095.94   -629.39788    95.858563    103.79658    98.092949    3.8860877    502.46944    39695.086 
  126000    493.93233   -274620.38            0   -272107.09    -374.0448    95.858563    103.79658    98.092949    3.9407648    509.37488    39704.432 
  127000    500.79387   -274608.32            0   -272060.11   -283.27796    95.858563    103.79658    98.092949    3.7842206    515.95929    39688.661 
  128000     501.1733   -274612.67            0   -272062.53   -621.18507    95.858563    103.79658    98.092949    4.3612861    522.79359    39692.098 
  129000    498.01456   -274626.41            0   -272092.35   -537.54175    95.858563    103.79658    98.092949    3.6485096    529.29912    39670.634 
  130000    498.32826   -274609.15            0    -272073.5   -855.97229    95.858563    103.79658    98.092949     3.822646    535.91819    39657.946 
  131000    500.94676   -274624.33            0   -272075.35   -694.02969    95.858563    103.79658    98.092949    4.2698021    542.67792    39655.687 
  132000    501.18851   -274609.94            0   -272059.73   -550.99068    95.858563    103.79658    98.092949    4.2650943    549.67886    39670.726 
  133000    501.06012   -274636.76            0    -272087.2   -1036.4048    95.858563    103.79658    98.092949    4.3933364    556.19039    39650.344 
  134000    499.84955   -274635.39            0   -272091.99   -783.40234    95.858563    103.79658    98.092949    4.1266294    563.02408    39652.981 
  135000    503.14434   -274633.96            0    -272073.8   -542.38504    95.858563    103.79658    98.092949    4.1130404    569.51155    39631.304 
  136000    497.88087   -274620.51            0   -272087.13   -693.16312    95.858563    103.79658    98.092949    3.7635812    576.00967    39610.711 
  137000     498.5293   -274611.11            0   -272074.43   -449.57604    95.858563    103.79658    98.092949    4.2158311    582.76264    39607.764 
  138000     501.0132   -274638.12            0   -272088.81   -867.93894    95.858563    103.79658    98.092949    4.0469605    589.66913    39615.044 
  139000    500.26196   -274628.05            0   -272082.56   -841.98063    95.858563    103.79658    98.092949    4.4429445    596.32444    39605.323 
  140000    502.20223    -274609.8            0   -272054.43   -614.72429    95.858563    103.79658    98.092949    4.6488504    603.03728    39599.448 
  141000    497.15981   -274623.11            0    -272093.4   -847.62474    95.858563    103.79658    98.092949    4.2029465    609.60067     39583.85 
  142000    500.87811   -274614.29            0   -272065.66   -1060.7003    95.858563    103.79658    98.092949    3.9476494    616.21755    39571.884 
  143000    499.39791   -274615.02            0   -272073.92   -549.19903    95.858563    103.79658    98.092949    3.7384877     623.0412    39573.165 
  144000    498.98958   -274617.82            0    -272078.8     -791.934    95.858563    103.79658    98.092949    3.6033948    629.96006    39580.256 
  145000    498.89146   -274616.01            0   -272077.49   -583.01639    95.858563    103.79658    98.092949    5.0829365    636.44268    39559.937 
  146000    501.32537   -274606.59            0   -272055.68   -650.36616    95.858563    103.79658    98.092949    4.2256735    643.19637    39556.577 
  147000    501.76988   -274647.29            0   -272094.12   -542.26194    95.858563    103.79658    98.092949    4.0456548    649.69701    39537.747 
  148000    497.72652   -274621.74            0   -272089.14   -666.17239    95.858563    103.79658    98.092949    4.3288038    656.27577    39523.874 
  149000    502.91067   -274637.95            0   -272078.98   -769.92475    95.858563    103.79658    98.092949    4.3997094     663.0685    39522.901 
  150000    501.72179   -274624.12            0    -272071.2   -681.96417    95.858563    103.79658    98.092949    3.7364809    669.93651    39526.254 
  151000    503.81671    -274618.5            0   -272054.91   -622.52997    95.858563    103.79658    98.092949    4.1316478    676.61803    39518.512 
  152000    496.83898   -274617.74            0   -272089.67   -975.34382    95.858563    103.79658    98.092949    3.9088464    683.28712    39510.073 
  153000     500.1187   -274624.62            0   -272079.85   -688.76381    95.858563    103.79658    98.092949    3.9936854    689.88254     39497.45 
  154000    503.12722   -274648.41            0   -272088.34   -889.57955    95.858563    103.79658    98.092949    4.4922516    696.37908    39479.337 
  155000    500.72621   -274607.78            0   -272059.93   -776.96019    95.858563    103.79658    98.092949    4.4013304    703.07932    39472.882 
  156000    502.72882   -274639.35            0    -272081.3   -795.29457    95.858563    103.79658    98.092949    3.6222654    710.01095    39479.288 
  157000    495.92723   -274615.78            0   -272092.34   -704.88054    95.858563    103.79658    98.092949    4.4275799    716.63002    39468.231 
  158000    501.30415   -274624.46            0   -272073.66   -1004.7752    95.858563    103.79658    98.092949    3.7940341    723.41837    39466.491 
  159000    500.77519   -274611.43            0   -272063.32   -1074.6298    95.858563    103.79658    98.092949     4.478971    729.97549    39452.161 
  160000    498.28917   -274639.94            0   -272104.48   -820.00586    95.858563    103.79658    98.092949    4.1012771    736.51625    39437.097 
  161000    498.64266   -274627.44            0   -272090.19   -617.53722    95.858563    103.79658    98.092949    4.4510959    743.21677    39430.663 
  162000    496.65623   -274641.23            0   -272114.08   -1059.2517    95.858563    103.79658    98.092949    3.9912869      750.182     39438.14 
  163000    502.58429   -274635.02            0   -272077.71   -715.31261    95.858563    103.79658    98.092949    4.6720562    756.88949    39431.933 
  164000    503.35126   -274624.62            0   -272063.41   -616.40886    95.858563    103.79658    98.092949    3.9793054    763.66914    39429.444 
  165000    500.24149   -274629.02            0   -272083.63   -1056.5018    95.858563    103.79658    98.092949    4.0587712    770.20394     39414.35 
  166000     499.9963    -274633.3            0   -272089.15   -999.19742    95.858563    103.79658    98.092949    4.1205268    776.81474    39403.258 
  167000    498.35045   -274630.73            0   -272094.96   -643.27779    95.858563    103.79658    98.092949    3.9093965    783.59879    39400.954 
  168000    502.46852   -274617.79            0   -272061.07   -629.32205    95.858563    103.79658    98.092949    4.5422815    790.49648     39404.24 
  169000    498.15814   -274641.79            0      -272107   -1059.6986    95.858563    103.79658    98.092949    4.1752471    797.18313    39396.924 
  170000    498.72989   -274624.38            0   -272086.68   -892.18309    95.858563    103.79658    98.092949    3.3841652    803.98686    39395.356 
  171000    502.85674   -274624.93            0   -272066.23    -717.0812    95.858563    103.79658    98.092949    3.7083984    810.41726    39375.563 
  172000    498.99667   -274613.57            0   -272074.51    -933.4338    95.858563    103.79658    98.092949    4.0263817    816.92772    39359.846 
  173000    498.75269   -274651.17            0   -272113.36    -973.5746    95.858563    103.79658    98.092949    4.6310492    823.73604     39358.51 
  174000    502.78824   -274636.55            0    -272078.2   -1032.8799    95.858563    103.79658    98.092949    3.9447799    830.74111    39366.409 
  175000     496.9166   -274651.34            0   -272122.86   -1102.6219    95.858563    103.79658    98.092949    3.7259962    837.34506    39355.218 
  176000    499.49567    -274638.2            0    -272096.6   -805.89881    95.858563    103.79658    98.092949    3.5332653    844.08496    39350.437 
  177000      500.733   -274651.53            0   -272103.64   -734.71829    95.858563    103.79658    98.092949    4.3002677    850.60576    39335.493 
  178000    500.81793   -274622.75            0   -272074.43   -660.75764    95.858563    103.79658    98.092949    3.7551039    857.17113    39322.726 
  179000    500.13717   -274645.19            0   -272100.33   -655.84433    95.858563    103.79658    98.092949    4.2323569    863.99908    39322.005 
  180000    501.57944   -274620.41            0   -272068.21   -764.39459    95.858563    103.79658    98.092949    3.7751593    870.85611    39322.503 
  181000     501.7653   -274644.57            0   -272091.43   -831.03373    95.858563    103.79658    98.092949    3.8441757    877.50232    39313.444 
  182000    499.78167   -274658.15            0    -272115.1   -1037.1027    95.858563    103.79658    98.092949    3.8020286    884.21824     39307.52 
  183000    500.62659   -274628.82            0   -272081.47   -758.97361    95.858563    103.79658    98.092949    3.6213675    890.81449    39296.305 
  184000    500.05631   -274647.59            0   -272103.14   -902.70179    95.858563    103.79658    98.092949    3.9737852    897.33112    39281.674 
  185000     498.5215   -274623.26            0   -272086.62   -1092.1459    95.858563    103.79658    98.092949    3.8506184    904.19913    39282.429 
  186000    498.89104   -274651.28            0   -272112.76   -768.54875    95.858563    103.79658    98.092949    4.7027396    910.95268    39278.136 
  187000     499.7827   -274634.36            0    -272091.3   -889.66624    95.858563    103.79658    98.092949    4.3308772     917.5692    39267.943 
  188000    496.36214   -274654.56            0   -272128.91   -720.36581    95.858563    103.79658    98.092949    3.9993384    924.35248    39264.886 
  189000     501.9535    -274648.1            0      -272094   -549.22864    95.858563    103.79658    98.092949    3.7905167    930.90044    39251.852 
  190000    498.52718   -274657.31            0   -272120.64   -872.13651    95.858563    103.79658    98.092949    3.8936751    937.53517    39242.543 
  191000    499.63386   -274642.37            0   -272100.07   -902.92913    95.858563    103.79658    98.092949    4.1760979     944.4108    39243.283 
  192000    501.16255   -274611.49            0   -272061.41   -648.42788    95.858563    103.79658    98.092949    4.6080165    951.20536     39240.57 
  193000    500.68888   -274645.65            0   -272097.98   -984.70187    95.858563    103.79658    98.092949    4.0777287    957.85398    39231.823 
  194000    498.53405   -274643.26            0   -272106.56   -1016.8192    95.858563    103.79658    98.092949    3.9055926    964.75833    39233.505 
  195000    504.29344   -274669.57            0   -272103.56   -1003.8986    95.858563    103.79658    98.092949    3.8369525      971.268    39219.132 
  196000     498.4224   -274652.99            0   -272116.85   -1148.4082    95.858563    103.79658    98.092949    3.7326676    977.84232    39207.458 
  197000    495.16165      -274647            0   -272127.46   -1103.5944    95.858563    103.79658    98.092949    3.6772176     984.6856    39206.563 
  198000    501.60886   -274653.88            0   -272101.53   -978.42178    95.858563    103.79658    98.092949    4.1352615     991.5973    39208.293 
  199000    500.59859   -274665.61            0    -272118.4   -778.01022    95.858563    103.79658    98.092949    3.6342596    998.23777    39199.256 
  200000    499.34754   -274636.49            0   -272095.64   -819.54858    95.858563    103.79658    98.092949    4.1723077    1004.8943    39190.878 
  201000    501.97706   -274650.27            0   -272096.05   -1077.7452    95.858563    103.79658    98.092949    4.3621163    1011.5237    39181.471 
  202000    500.96115    -274644.2            0   -272095.14   -738.58674    95.858563    103.79658    98.092949    4.1347197    1018.0126    39166.697 
  203000    500.16236   -274636.69            0   -272091.71   -668.83106    95.858563    103.79658    98.092949     3.917553    1024.9537    39169.309 
  204000    500.69939   -274636.07            0   -272088.35   -891.50405    95.858563    103.79658    98.092949    4.7736901    1031.6949    39164.209 
  205000    502.36685   -274677.36            0   -272121.16   -794.97899    95.858563    103.79658    98.092949    3.7317144    1038.2438    39151.838 
  206000    500.14686   -274637.33            0   -272092.42   -1097.0528    95.858563    103.79658    98.092949    4.4200261    1044.9206    39144.333 
  207000    499.12046   -274650.64            0   -272110.95   -946.31475    95.858563    103.79658    98.092949    3.7324065    1051.4096    39129.848 
  208000    494.77401   -274646.78            0   -272129.21   -910.71571    95.858563    103.79658    98.092949    4.7254242    1057.8721    39114.485 
  209000    498.79752   -274629.66            0   -272091.62   -907.72706    95.858563    103.79658    98.092949    3.8485559    1064.7404    39114.141 
  210000    502.42361   -274645.58            0   -272089.09   -914.03451    95.858563    103.79658    98.092949    4.4669692    1071.4909    39109.419 
  211000    501.96008   -274638.45            0   -272084.31    -1022.431    95.858563    103.79658    98.092949    4.2196048    1078.1744     39102.24 
  212000    500.99462   -274655.34            0   -272106.12   -994.65823    95.858563    103.79658    98.092949    3.8111924    1084.9824     39099.55 
  213000    501.66862   -274632.86            0   -272080.21   -914.43157    95.858563    103.79658    98.092949    3.9971924     1091.438    39084.193 
  214000    500.51408   -274641.43            0   -272094.65   -1118.0469    95.858563    103.79658    98.092949    4.6193655    1098.0972    39076.192 
  215000    499.28905   -274660.04            0   -272119.49   -949.34502    95.858563    103.79658    98.092949    3.7023165     1105.082    39079.717 
  216000    500.43258   -274650.05            0   -272103.68   -1161.7591    95.858563    103.79658    98.092949    4.1630428    1111.9499     39079.01 
  217000    495.35099   -274668.09            0   -272147.58   -1298.4848    95.858563    103.79658    98.092949    3.9911786    1118.6851    39073.594 
  218000    500.10143   -274645.45            0   -272100.77   -1221.7747    95.858563    103.79658    98.092949    4.0996852    1125.3325    39065.112 
  219000    498.04181   -274647.77            0   -272113.57    -1011.922    95.858563    103.79658    98.092949    3.8783752    1131.8334    39051.602 
  220000    501.90693   -274650.67            0   -272096.81   -814.47359    95.858563    103.79658    98.092949    4.0428985    1138.4341    39041.592 
  221000    504.69663   -274629.19            0   -272061.13   -546.19397    95.858563    103.79658    98.092949    3.7330618    1145.4318    39045.159 
  222000    498.57558   -274632.68            0   -272095.76   -803.98894    95.858563    103.79658    98.092949    3.9666585    1152.0828    39036.853 
  223000    498.97295   -274659.61            0   -272120.68   -891.61566    95.858563    103.79658    98.092949     4.843249    1158.8389    39032.104 
  224000    500.64318   -274639.25            0   -272091.81   -760.33279    95.858563    103.79658    98.092949    3.9665043    1165.4435    39022.263 
  225000    499.76896   -274652.05            0   -272109.07   -847.95035    95.858563    103.79658    98.092949     4.178558    1171.9865    39010.409 
  226000    497.71839   -274628.97            0   -272096.41   -749.77726    95.858563    103.79658    98.092949    3.6152181    1178.5609    38999.652 
  227000    499.69114   -274653.34            0   -272110.74   -754.94525    95.858563    103.79658    98.092949    3.9853167    1185.4986    39000.895 
  228000    499.77384   -274628.48            0   -272085.47   -779.87484    95.858563    103.79658    98.092949    5.0538813    1192.1978    38994.244 
  229000    500.85579   -274660.09            0   -272111.58   -685.25457    95.858563    103.79658    98.092949    3.7558208    1198.8714    38986.764 
  230000     499.2439   -274635.48            0   -272095.17   -1033.7248    95.858563    103.79658    98.092949    3.8511763    1205.5828     38980.51 
  231000    498.51141   -274672.15            0   -272135.57   -802.96419    95.858563    103.79658    98.092949    3.9075558    1211.9973     38964.71 
  232000    501.73886   -274654.75            0   -272101.74   -1256.5701    95.858563    103.79658    98.092949    3.6649683     1218.587     38954.61 
  233000    500.35471   -274671.63            0   -272125.66   -1179.8158    95.858563    103.79658    98.092949    3.7790274      1225.49     38954.51 
  234000    501.97291   -274654.03            0   -272099.83   -939.12119    95.858563    103.79658    98.092949    4.0580586    1232.2401    38949.501 
  235000    502.10065   -274658.69            0   -272103.84   -1105.5907    95.858563    103.79658    98.092949    4.1417081    1238.9433    38943.002 
  236000    499.85546   -274657.17            0   -272113.75   -882.59433    95.858563    103.79658    98.092949    4.0876183    1245.6454    38936.465 
  237000    501.51758   -274647.63            0   -272095.75    -1224.416    95.858563    103.79658    98.092949    4.5218107     1252.201    38925.372 
  238000    496.42488   -274645.55            0   -272119.57   -1002.1453    95.858563    103.79658    98.092949    4.0817333    1258.8348    38916.743 
  239000    495.88182    -274653.6            0   -272130.39   -1006.7849    95.858563    103.79658    98.092949    4.0076099    1265.8683    38920.426 
  240000    501.89706   -274663.98            0   -272110.17    -1004.052    95.858563    103.79658    98.092949    3.8894031    1272.5452    38913.093 
  241000     499.4774    -274650.9            0   -272109.39   -1049.4478    95.858563    103.79658    98.092949    4.0815011    1279.2857    38907.699 
  242000    500.41057    -274661.1            0   -272114.85   -1210.5954    95.858563    103.79658    98.092949    4.6581108     1285.831    38896.388 
  243000    502.13662   -274611.88            0   -272056.85   -1114.4676    95.858563    103.79658    98.092949    3.7442411    1292.4393     38887.02 
  244000    501.60697   -274648.24            0    -272095.9   -988.44486    95.858563    103.79658    98.092949    4.0790922    1298.9359     38874.34 
  245000    498.36543   -274641.14            0    -272105.3   -901.27299    95.858563    103.79658    98.092949     3.999537    1305.9651    38877.577 
  246000    501.27052   -274636.02            0    -272085.4   -1200.0554    95.858563    103.79658    98.092949    4.0802654    1312.6615    38870.854 
  247000    500.00975   -274638.78            0   -272094.57   -1055.0898    95.858563    103.79658    98.092949    4.2465657    1319.2828    38861.919 
  248000    495.98721   -274651.87            0   -272128.12    -1246.593    95.858563    103.79658    98.092949    4.4631237    1325.9251    38853.623 
  249000    501.58873   -274649.48            0   -272097.23   -1273.9869    95.858563    103.79658    98.092949    4.3394015    1332.4462     38841.81 
  250000     500.6524   -274670.26            0   -272122.77   -1028.3716    95.858563    103.79658    98.092949    4.1997715     1339.106    38834.074 
  251000    502.78895   -274651.43            0   -272093.08   -1233.8062    95.858563    103.79658    98.092949    3.9542648    1346.2039    38838.987 
  252000    502.47382   -274648.28            0   -272091.53    -1011.382    95.858563    103.79658    98.092949     4.739847    1352.8967    38832.155 
  253000    498.21985   -274658.71            0   -272123.61   -776.14361    95.858563    103.79658    98.092949    3.9412009    1359.6695    38827.607 
  254000     500.5826    -274647.7            0   -272100.57   -898.17496    95.858563    103.79658    98.092949    4.6413355    1366.3304    38819.857 
  255000    504.01775   -274638.27            0   -272073.66    -1067.601    95.858563    103.79658    98.092949    4.4510636    1372.9152    38809.968 
  256000    500.18393    -274646.6            0    -272101.5   -1048.6195    95.858563    103.79658    98.092949    4.1372697    1379.5115    38800.436 
  257000     502.3484    -274648.9            0   -272092.78   -1151.5707    95.858563    103.79658    98.092949    5.0939744     1386.544    38803.136 
  258000    500.42552   -274639.93            0    -272093.6   -913.56508    95.858563    103.79658    98.092949    4.2102076    1393.1775    38794.634 
  259000    499.11066   -274652.92            0   -272113.28   -831.61134    95.858563    103.79658    98.092949    4.1968015    1399.9604     38790.29 
  260000    496.90491   -274652.75            0   -272124.33   -1214.2392    95.858563    103.79658    98.092949    4.0874639    1406.5695    38781.132 
  261000    500.65247   -274675.96            0   -272128.47   -816.81335    95.858563    103.79658    98.092949    4.0092599    1413.0472    38768.389 
  262000    499.90931   -274658.83            0   -272115.13   -1055.8824    95.858563    103.79658    98.092949     4.642593    1419.5963    38757.657 
  263000    499.42997   -274646.12            0   -272104.86   -1118.6432    95.858563    103.79658    98.092949    3.9954944     1426.692    38761.816 
  264000    496.71649    -274637.1            0   -272109.64   -1166.7803    95.858563    103.79658    98.092949    4.2584293    1433.2835    38752.235 
  265000    502.90835   -274627.73            0   -272068.77   -1139.9166    95.858563    103.79658    98.092949     3.979833     1440.068    38747.877 
  266000    500.61964    -274637.4            0   -272090.09   -1214.6787    95.858563    103.79658    98.092949    4.0728073    1446.7303    38740.221 
  267000    500.43018   -274651.28            0   -272104.93   -996.09792    95.858563    103.79658    98.092949    3.6655204    1453.4167    38733.219 
  268000     502.3673   -274644.11            0    -272087.9   -1091.6774    95.858563    103.79658    98.092949    4.1841601     1460.046    38724.706 
  269000    501.25088      -274642            0   -272091.47   -1001.0074    95.858563    103.79658    98.092949    3.9819345    1467.0314     38725.61 
  270000    496.01815   -274651.83            0   -272127.93     -1005.93    95.858563    103.79658    98.092949    3.9519525    1473.6278    38716.221 
  271000     499.2818   -274643.33            0   -272102.82   -1027.8832    95.858563    103.79658    98.092949    3.8344891    1480.3308    38709.645 
  272000    500.09826   -274652.91            0   -272108.25   -968.58197    95.858563    103.79658    98.092949    3.8976704    1486.9251     38700.24 
  273000    497.50604   -274642.93            0   -272111.46   -1226.2976    95.858563    103.79658    98.092949    3.9384763    1493.4599    38689.316 
  274000    499.06078   -274658.59            0   -272119.21    -1032.989    95.858563    103.79658    98.092949    3.8618648    1499.9335    38676.858 
  275000      500.345    -274646.5            0   -272100.59   -1037.1325    95.858563    103.79658    98.092949     4.954262    1506.9077    38677.297 
  276000    501.20141   -274648.42            0   -272098.14   -1195.9661    95.858563    103.79658    98.092949    4.1807243    1513.5573     38669.38 
  277000      500.375   -274655.01            0   -272108.94   -1194.8005    95.858563    103.79658    98.092949    3.8864675    1520.2832    38663.415 
  278000    500.03001   -274652.09            0   -272107.78   -1171.6535    95.858563    103.79658    98.092949    3.9615165    1526.9027    38654.747 
  279000    501.43094   -274663.11            0   -272111.66   -1037.2632    95.858563    103.79658    98.092949    4.5034413    1533.3658    38642.157 
  280000    500.28766   -274643.22            0    -272097.6   -868.92972    95.858563    103.79658    98.092949    4.6604406    1539.9055    38631.542 
  281000    497.35237   -274653.42            0   -272122.73   -873.03866    95.858563    103.79658    98.092949     4.637633    1546.8315    38630.611 
  282000    501.98401   -274676.06            0    -272121.8    -1035.634    95.858563    103.79658    98.092949    3.8474608    1553.5718     38625.01 
  283000    499.13055   -274660.25            0   -272120.51   -1086.4859    95.858563    103.79658    98.092949    4.2037664    1560.4281     38622.27 
  284000    500.51725   -274648.07            0   -272101.27   -971.65363    95.858563    103.79658    98.092949     4.181295    1567.2792    38619.367 
  285000    501.32994   -274660.78            0   -272109.85   -1027.3769    95.858563    103.79658    98.092949    3.8992107    1573.7411    38606.883 
  286000     497.1067   -274639.39            0   -272109.95   -995.23682    95.858563    103.79658    98.092949    3.6322476    1580.3173    38597.242 
  287000    497.64924   -274657.26            0   -272125.06   -1027.2879    95.858563    103.79658    98.092949      4.91785    1587.3759    38599.356 
  288000    499.92208   -274651.05            0   -272107.29   -876.96537    95.858563    103.79658    98.092949    4.0564601    1594.0604    38592.337 
  289000    501.58771   -274674.61            0   -272122.37   -770.44711    95.858563    103.79658    98.092949    4.7143037    1600.8072    38586.822 
  290000    502.35631   -274685.48            0   -272129.32   -947.71599    95.858563    103.79658    98.092949     3.757043    1607.4313    38578.352 
  291000    500.11661   -274665.39            0   -272120.63   -1075.1647    95.858563    103.79658    98.092949    5.1778387    1613.9967    38568.495 
  292000      501.657   -274654.68            0   -272102.09   -973.41977    95.858563    103.79658    98.092949    4.2405207    1620.5869    38559.255 
  293000     502.3997    -274661.1            0   -272104.73   -1097.6771    95.858563    103.79658    98.092949    4.4144044    1627.6422    38561.054 
  294000    501.08054   -274639.48            0   -272089.82    -1097.836    95.858563    103.79658    98.092949     4.247225    1634.2551    38552.345 
  295000    502.08269   -274662.16            0    -272107.4   -1069.7226    95.858563    103.79658    98.092949    4.1766281    1641.0121     38547.04 
  296000    497.85314   -274661.29            0   -272128.05   -1112.3853    95.858563    103.79658    98.092949    3.5845517    1647.7005    38540.117 
  297000     500.0935   -274654.28            0   -272109.64   -668.53013    95.858563    103.79658    98.092949    4.5141082     1654.142    38527.444 
  298000    502.00298   -274651.26            0    -272096.9   -954.69593    95.858563    103.79658    98.092949    3.9153888    1660.6704    38516.839 
  299000    498.17234   -274669.87            0      -272135   -927.13661    95.858563    103.79658    98.092949    4.2393633    1667.6911    38517.638 
  300000    500.92525   -274650.73            0   -272101.86   -1026.6517    95.858563    103.79658    98.092949    4.3213237    1674.3661    38510.419 
  301000    503.21979   -274638.12            0   -272077.57   -803.50583    95.858563    103.79658    98.092949    3.9564789    1681.2148    38507.187 
  302000    493.70627   -274642.13            0   -272129.99   -1312.4532    95.858563    103.79658    98.092949    4.3052372    1687.7637    38497.085 
  303000    499.09357   -274647.52            0   -272107.97   -1009.9835    95.858563    103.79658    98.092949    4.9043733     1694.233    38485.206 
  304000    500.68457   -274652.54            0   -272104.89   -1308.0702    95.858563    103.79658    98.092949    3.5270454    1700.7921    38475.399 
  305000    500.72531   -274633.56            0   -272085.71   -890.94422    95.858563    103.79658    98.092949    4.3670008    1707.8423    38476.682 
  306000    499.65915   -274664.06            0   -272121.63   -940.75814    95.858563    103.79658    98.092949    4.6024455    1714.3906    38466.639 
  307000    502.61765   -274657.41            0   -272099.93   -929.63358    95.858563    103.79658    98.092949    4.1210725    1721.3411    38465.611 
  308000    499.18922   -274641.24            0    -272101.2   -928.31949    95.858563    103.79658    98.092949    4.1296472    1727.8957    38455.726 
  309000       500.02   -274661.14            0   -272116.87   -881.07533    95.858563    103.79658    98.092949    4.7333332    1734.4241    38445.286 
  310000    502.94712   -274660.96            0    -272101.8   -1167.8994    95.858563    103.79658    98.092949    3.7415475    1741.0694    38437.455 
  311000    500.26258   -274650.25            0   -272104.75   -1004.2764    95.858563    103.79658    98.092949    4.0783247     1748.008    38436.085 
  312000    500.85957   -274646.93            0   -272098.39   -1042.6686    95.858563    103.79658    98.092949    3.8956567    1754.5351    38425.658 
  313000     499.4414   -274662.63            0   -272121.31    -1104.953    95.858563    103.79658    98.092949    4.1527978    1761.2811    38420.037 
  314000     502.5815   -274659.64            0   -272102.34   -975.52137    95.858563    103.79658    98.092949    4.0979333    1767.7391    38408.149 
  315000    502.47493   -274645.21            0   -272088.45   -996.43341    95.858563    103.79658    98.092949    4.3280188    1774.1605    38395.511 
  316000    501.17294   -274651.34            0   -272101.21   -1028.8798    95.858563    103.79658    98.092949    4.4292411    1780.6848    38385.138 
  317000    502.07011   -274675.68            0   -272120.98   -887.32667    95.858563    103.79658    98.092949    4.0844909    1787.6724    38384.742 
  318000    500.78426   -274675.31            0   -272127.16   -1279.9132    95.858563    103.79658    98.092949    3.9217593    1794.2571    38375.678 
  319000    497.33615   -274660.53            0   -272129.92   -752.96085    95.858563    103.79658    98.092949    4.3197957    1801.1933    38374.122 
  320000    501.69456   -274660.99            0    -272108.2   -1087.7061    95.858563    103.79658    98.092949    4.2251163    1807.7334    38364.121 
  321000    499.43899   -274656.52            0   -272115.21   -988.79959    95.858563    103.79658    98.092949    4.3234306    1814.4172    38357.181 
  322000    498.96274   -274664.94            0   -272126.05   -882.47345    95.858563    103.79658    98.092949    4.7538071    1821.0937     38350.09 
  323000    500.05361   -274646.08            0   -272101.64    -922.9512    95.858563    103.79658    98.092949    3.8965521    1828.0904     38349.72 
  324000    502.01836   -274677.13            0    -272122.7   -1181.7729    95.858563    103.79658    98.092949    3.4757241    1834.7229    38341.692 
  325000      500.017   -274650.91            0   -272106.66   -902.54194    95.858563    103.79658    98.092949    4.6257143    1841.5446     38337.61 
  326000    501.19113   -274655.89            0   -272105.66   -897.96956    95.858563    103.79658    98.092949    4.8401427    1848.0355    38326.649 
  327000    503.95178   -274663.85            0   -272099.58   -1050.5428    95.858563    103.79658    98.092949    4.1293198    1854.6306    38317.873 
  328000    498.63187   -274655.19            0   -272117.99   -728.39044    95.858563    103.79658    98.092949    4.3868103    1861.2789    38310.208 
  329000    502.45592    -274672.2            0   -272115.54   -982.96094    95.858563    103.79658    98.092949     3.697709    1868.1877    38307.892 
  330000    499.67039   -274673.36            0   -272130.87   -872.49289    95.858563    103.79658    98.092949    4.1295218    1874.8567    38300.644 
  331000    505.55885   -274662.02            0   -272089.57   -605.23572    95.858563    103.79658    98.092949    4.2372944    1881.6571    38296.075 
  332000    502.88293   -274671.49            0   -272112.65   -922.70885    95.858563    103.79658    98.092949    4.0232759    1888.1846    38285.956 
  333000    494.27421   -274676.66            0   -272161.64   -1013.3206    95.858563    103.79658    98.092949    4.0653709    1894.6574    38274.757 
  334000    501.48511   -274665.91            0   -272114.19     -1068.44    95.858563    103.79658    98.092949    3.7433395    1901.2534    38266.071 
  335000     497.3172   -274676.63            0   -272146.12   -928.48491    95.858563    103.79658    98.092949    4.0903507    1908.1214    38262.856 
  336000    500.69662   -274667.01            0    -272119.3   -980.98363    95.858563    103.79658    98.092949    4.0088016    1914.7642    38255.114 
  337000    498.60327   -274677.48            0   -272140.42   -1025.6037    95.858563    103.79658    98.092949     4.360334    1921.5781    38250.787 
  338000    499.42076   -274652.53            0   -272111.31   -1279.0579    95.858563    103.79658    98.092949    4.3988084    1928.1258    38241.162 
  339000    501.09543   -274665.07            0   -272115.34   -958.60578    95.858563    103.79658    98.092949    4.1705156    1934.6527    38231.146 
  340000     503.8764   -274650.25            0   -272086.36   -960.22948    95.858563    103.79658    98.092949    3.7643136    1941.3815    38225.132 
  341000    499.91462   -274659.86            0   -272116.13   -978.23604    95.858563    103.79658    98.092949    3.9933858    1948.3664    38224.136 
  342000    501.53506   -274666.51            0   -272114.54   -827.54017    95.858563    103.79658    98.092949    4.2194775    1955.0334    38216.887 
  343000      502.265   -274662.46            0   -272106.77   -1108.4639    95.858563    103.79658    98.092949    4.2339325     1961.794    38211.462 
  344000    497.50198   -274651.02            0   -272119.56   -1306.0032    95.858563    103.79658    98.092949    4.1581165     1968.266    38200.428 
  345000    502.04517      -274657            0   -272102.43   -1119.1543    95.858563    103.79658    98.092949     5.030038    1974.8264    38191.133 
  346000    500.76624   -274628.78            0   -272080.72   -1138.3625    95.858563    103.79658    98.092949    4.0153967    1981.4031    38182.172 
  347000    502.08603    -274678.2            0   -272123.42   -1075.1582    95.858563    103.79658    98.092949    3.5415534    1988.3402    38180.148 
  348000    497.89219   -274680.06            0   -272146.62   -1155.9772    95.858563    103.79658    98.092949    3.6985132    1994.9638    38172.093 
  349000    501.81428   -274679.46            0   -272126.07   -1332.6915    95.858563    103.79658    98.092949    4.0244795    2001.7731    38167.586 
  350000     501.1552   -274664.39            0   -272114.35   -1330.7428    95.858563    103.79658    98.092949    4.4179265    2008.2986    38157.674 
  351000    499.60607   -274674.84            0   -272132.68   -1118.0613    95.858563    103.79658    98.092949    4.0710609    2014.8849    38148.934 
  352000    498.82451   -274663.09            0   -272124.91   -1126.3995    95.858563    103.79658    98.092949    3.8300886    2021.5748    38142.163 
  353000     503.2259   -274653.71            0   -272093.13   -1032.6653    95.858563    103.79658    98.092949    4.2736352    2028.5626    38140.994 
  354000    498.80475   -274674.72            0   -272136.64   -1138.1536    95.858563    103.79658    98.092949    4.1861006    2035.1415    38132.124 
  355000    499.73813   -274663.31            0   -272120.48   -1161.5576    95.858563    103.79658    98.092949    3.9442793    2041.8946    38126.523 
  356000    493.69357   -274659.33            0   -272147.25    -1218.827    95.858563    103.79658    98.092949    3.9570191    2048.3558    38115.483 
  357000    503.24109   -274673.04            0   -272112.39   -1182.4827    95.858563    103.79658    98.092949     4.341458    2054.8496    38105.078 
  358000    499.17827   -274685.72            0   -272145.74   -1281.9223    95.858563    103.79658    98.092949    4.2612238    2061.4784    38097.192 
  359000    494.55777   -274642.68            0   -272126.21   -1181.7075    95.858563    103.79658    98.092949     4.225158    2068.4312    38095.281 
  360000    502.74492   -274657.06            0   -272098.93   -1079.9184    95.858563    103.79658    98.092949    4.5515566    2075.0588    38087.369 
  361000     497.9571    -274682.2            0   -272148.44   -914.35368    95.858563    103.79658    98.092949    3.8669691    2081.8758     38082.93 
  362000    498.85669   -274671.22            0   -272132.88   -1034.7312    95.858563    103.79658    98.092949    3.9562726    2088.4524    38074.094 
  363000    498.13272   -274677.89            0   -272143.23   -1119.3953    95.858563    103.79658    98.092949    4.0517968    2095.0145    38065.008 
  364000    498.95167   -274668.71            0   -272129.88   -1054.5888    95.858563    103.79658    98.092949    4.8410718    2101.6456    38057.187 
  365000    499.98762   -274669.68            0   -272125.58   -1326.0905    95.858563    103.79658    98.092949    3.8990224     2108.627    38055.696 
  366000     500.5008   -274669.96            0   -272123.25   -1182.2893    95.858563    103.79658    98.092949    4.0348703    2115.2511    38047.745 
  367000    501.94387   -274651.48            0   -272097.43   -1258.7429    95.858563    103.79658    98.092949    3.9968294    2122.1321    38044.406 
  368000    498.44226   -274686.86            0   -272150.63   -1230.8818    95.858563    103.79658    98.092949    3.9598296    2128.6987    38035.428 
  369000    500.29332   -274664.07            0   -272118.41   -1185.9517    95.858563    103.79658    98.092949    3.7200113    2135.2316    38025.865 
  370000    499.63248   -274649.04            0   -272106.75   -1059.9396    95.858563    103.79658    98.092949    4.3024833    2141.8295    38017.474 
  371000    501.05044   -274670.97            0   -272121.46    -1277.068    95.858563    103.79658    98.092949    4.2523945    2148.7571    38014.927 
  372000    504.26212    -274678.6            0   -272112.75    -1292.607    95.858563    103.79658    98.092949    4.0383899    2155.3524    38006.494 
  373000    498.13036   -274645.36            0   -272110.71   -1273.1064    95.858563    103.79658    98.092949    3.8004037    2162.1298    38001.272 
  374000    501.09692   -274652.93            0   -272103.19   -1277.7623    95.858563    103.79658    98.092949    4.1300312    2168.9704    37997.148 
  375000     497.8431   -274630.87            0   -272097.69   -1194.9438    95.858563    103.79658    98.092949     3.749805    2175.4729    37987.104 
  376000    499.95773    -274654.2            0   -272110.25    -1189.269    95.858563    103.79658    98.092949    3.9992824    2182.0855    37978.997 
  377000    499.31544   -274668.66            0   -272127.98   -1064.4784    95.858563    103.79658    98.092949    3.8339685    2189.0747    37977.434 
  378000    499.28305   -274671.11            0   -272130.59   -1115.7723    95.858563    103.79658    98.092949    3.9503908    2195.6909    37969.386 
  379000    499.75553   -274651.64            0   -272108.72   -1188.3213    95.858563    103.79658    98.092949    3.7457308    2202.5044     37964.75 
  380000    498.78245   -274663.11            0   -272125.14   -1003.8373    95.858563    103.79658    98.092949    4.2190084    2209.0813    37956.032 
  381000    496.13369   -274673.39            0    -272148.9   -1026.6238    95.858563    103.79658    98.092949    3.8714654    2215.6121    37946.542 
  382000      500.344   -274655.15            0   -272109.24   -1056.8702    95.858563    103.79658    98.092949    3.9235684    2222.2774    37939.363 
  383000    498.81337   -274668.85            0   -272130.72   -1033.0613    95.858563    103.79658    98.092949    4.6269667    2229.2367     37937.19 
  384000    500.24246   -274657.15            0   -272111.75   -1141.1023    95.858563    103.79658    98.092949     4.344061    2235.8986    37929.945 
  385000    502.91598   -274678.73            0   -272119.73    -1317.702    95.858563    103.79658    98.092949    4.3970906    2242.6869     37924.84 
  386000    502.53675   -274676.71            0   -272119.64   -1199.2086    95.858563    103.79658    98.092949    3.6120346    2249.1692    37914.566 
  387000    499.85225   -274662.25            0   -272118.84   -1073.6164    95.858563    103.79658    98.092949    3.7880887    2255.6925    37905.005 
  388000    497.97294   -274677.75            0    -272143.9   -1227.8736    95.858563    103.79658    98.092949    4.2877694    2262.5104    37900.396 
  389000    498.68822   -274674.46            0   -272136.98   -1148.1144    95.858563    103.79658    98.092949    3.7651825    2269.4082    37897.108 
  390000    498.68434   -274681.57            0    -272144.1   -1286.9997    95.858563    103.79658    98.092949    4.3757621    2276.0929    37890.252 
  391000    499.86018   -274654.61            0   -272111.16   -1341.0653    95.858563    103.79658    98.092949    4.7962106    2282.9597     37886.42 
  392000    497.97407   -274654.62            0   -272120.77   -1083.1124    95.858563    103.79658    98.092949    4.1764989    2289.5888    37878.636 
  393000    499.82713    -274657.3            0   -272114.02   -1183.8811    95.858563    103.79658    98.092949    4.0529506    2296.1315    37869.433 
  394000    499.91714   -274662.75            0   -272119.01   -1367.5359    95.858563    103.79658    98.092949    4.0264549    2302.8583    37863.274 
  395000    499.41074   -274641.46            0    -272100.3   -1143.7171    95.858563    103.79658    98.092949    3.9272718    2309.7793    37860.296 
  396000    501.41553    -274668.5            0   -272117.13   -1119.5187    95.858563    103.79658    98.092949    3.9016212    2316.4268    37852.824 
  397000    499.65564   -274653.75            0   -272111.34   -1186.9613    95.858563    103.79658    98.092949    3.8389208    2323.1971    37847.358 
  398000    496.87392   -274668.98            0   -272140.72    -1443.106    95.858563    103.79658    98.092949    3.8225451    2329.7604    37838.522 
  399000     500.8696   -274680.96            0   -272132.37   -1162.1988    95.858563    103.79658    98.092949    4.5374383    2336.3815    37830.635 
  400000    502.64692   -274679.66            0   -272122.03   -1291.2573    95.858563    103.79658    98.092949    4.0004955    2343.1399    37824.972 
  401000    502.85612   -274668.69            0   -272109.99   -1055.9528    95.858563    103.79658    98.092949    4.3771486    2350.0075    37821.061 
  402000    498.71678   -274675.96            0   -272138.33   -1129.9725    95.858563    103.79658    98.092949    3.7531803    2356.6065    37812.823 
  403000    501.18585   -274685.46            0   -272135.26   -1089.2938    95.858563    103.79658    98.092949    3.7918678    2363.2324    37805.024 
  404000    501.64965   -274657.27            0   -272104.71   -1261.4741    95.858563    103.79658    98.092949    3.9113529    2369.7222    37795.061 
  405000    500.55527   -274676.51            0   -272129.53   -1210.0279    95.858563    103.79658    98.092949    4.0353659    2376.2263    37785.345 
  406000    498.04536   -274660.51            0   -272126.29   -1037.3777    95.858563    103.79658    98.092949    4.3386345    2382.9996    37779.915 
  407000    499.48307   -274677.92            0   -272136.39   -1373.7715    95.858563    103.79658    98.092949    4.1793181     2389.913    37776.693 
  408000    499.53557   -274647.36            0   -272105.56   -1276.1629    95.858563    103.79658    98.092949     3.961907    2396.6056    37769.969 
  409000     495.4781   -274673.07            0   -272151.92   -1344.7214    95.858563    103.79658    98.092949    5.3062009    2403.3563    37764.158 
  410000     500.4957    -274680.2            0   -272133.51   -1289.1136    95.858563    103.79658    98.092949    3.7995139    2409.9602    37756.043 
  411000    500.47114   -274662.76            0    -272116.2   -1228.3189    95.858563    103.79658    98.092949    3.7282237    2416.4869     37746.73 
  412000    499.39244   -274681.58            0   -272140.51   -1441.5896    95.858563    103.79658    98.092949     4.068935     2423.132    37739.276 
  413000    504.12716   -274678.54            0   -272113.37   -1438.0075    95.858563    103.79658    98.092949    3.9999036    2429.9649    37734.744 
  414000    501.36438   -274673.26            0   -272122.16   -1228.6904    95.858563    103.79658    98.092949    4.0178222    2436.6183     37727.42 
  415000    498.17132   -274663.61            0   -272128.75   -1318.5187    95.858563    103.79658    98.092949    3.9224186    2443.3256     37720.93 
  416000      502.227   -274658.21            0   -272102.72   -1054.9702    95.858563    103.79658    98.092949    3.9505007    2449.8017    37710.881 
  417000    500.32781    -274654.2            0   -272108.37   -1248.6944    95.858563    103.79658    98.092949    3.9352447    2456.3462    37701.902 
  418000    498.59599   -274667.56            0   -272130.54   -1141.3422    95.858563    103.79658    98.092949    4.1388486    2463.1984    37697.645 
  419000    502.98697   -274675.31            0   -272115.94   -1330.5207    95.858563    103.79658    98.092949     4.591348    2470.1339    37694.646 
  420000    500.29875   -274671.93            0   -272126.25    -1374.355    95.858563    103.79658    98.092949    3.7232586    2476.7444    37686.679 
  421000    501.85823   -274680.15            0   -272126.54   -1206.7742    95.858563    103.79658    98.092949    4.4723861    2483.5339    37681.436 
  422000    502.95289   -274664.74            0   -272105.55   -1239.8367    95.858563    103.79658    98.092949    4.2959435     2490.235    37674.846 
  423000    497.99312   -274670.83            0   -272136.88   -1427.4806    95.858563    103.79658    98.092949    4.1781409    2496.7386    37665.276 
  424000    500.02787   -274656.77            0   -272112.46   -1393.1443    95.858563    103.79658    98.092949     4.357489     2503.505    37659.677 
  425000    499.95802    -274674.2            0   -272130.25   -1424.6609    95.858563    103.79658    98.092949    3.7405783     2510.377    37655.656 
  426000    497.46989   -274684.11            0   -272152.82   -1393.8489    95.858563    103.79658    98.092949    3.8015554    2516.9223    37646.731 
  427000    496.16706   -274667.47            0   -272142.81   -1357.8341    95.858563    103.79658    98.092949    4.2197112     2523.697    37641.242 
  428000    499.36082   -274646.42            0   -272105.51   -1052.6211    95.858563    103.79658    98.092949    3.9258326    2530.2157    37631.938 
  429000    498.42686   -274673.86            0    -272137.7   -1137.9929    95.858563    103.79658    98.092949    3.6526725    2536.6165      37620.9 
  430000     502.5155   -274674.17            0   -272117.21   -1432.4414    95.858563    103.79658    98.092949    3.9498988    2543.4586    37616.414 
  431000    504.36139   -274662.61            0   -272096.26   -1116.0184    95.858563    103.79658    98.092949    4.1212423    2550.2601    37611.316 
  432000    501.42543    -274667.8            0   -272116.39   -1435.9316    95.858563    103.79658    98.092949    3.9282458    2556.8598    37603.242 
  433000    501.16289   -274648.08            0      -272098    -1274.743    95.858563    103.79658    98.092949    3.9796392    2563.5844    37597.007 
  434000    498.67788   -274650.25            0   -272112.81   -1193.2809    95.858563    103.79658    98.092949    4.2042221    2570.1138    37587.914 
  435000    497.68394   -274649.93            0   -272117.55   -1346.0858    95.858563    103.79658    98.092949    3.7318723    2576.7258     37580.04 
  436000    500.36522    -274667.7            0   -272121.68   -1058.6425    95.858563    103.79658    98.092949    3.9563532    2583.6487    37576.693 
  437000    497.71754   -274675.92            0   -272143.38   -1301.4557    95.858563    103.79658    98.092949    3.6890628    2590.5121    37572.467 
  438000    503.95318    -274657.6            0   -272093.32   -1355.6144    95.858563    103.79658    98.092949    4.0716204    2597.1758    37565.337 
  439000    501.74571   -274668.38            0   -272115.33   -1248.9362    95.858563    103.79658    98.092949    3.7021405    2603.9673    37560.052 
  440000    500.86732   -274672.35            0   -272123.77   -1253.4829    95.858563    103.79658    98.092949    3.9256045    2610.5143    37551.244 
  441000    498.64848   -274646.56            0   -272109.27   -969.60023    95.858563    103.79658    98.092949    4.1909828    2617.1017    37543.027 
  442000    500.24598   -274661.54            0   -272116.13   -1402.5632    95.858563    103.79658    98.092949    4.1973996     2623.929     37538.25 
  443000    499.65641   -274673.67            0   -272131.25   -1058.8393    95.858563    103.79658    98.092949    4.7122362    2630.8119    37534.255 
  444000    498.77105   -274658.77            0   -272120.86   -1374.6512    95.858563    103.79658    98.092949    4.1364298    2637.4525    37526.799 
  445000    499.46974   -274676.21            0   -272134.75   -1422.0538    95.858563    103.79658    98.092949    4.5487565    2644.1724    37520.471 
  446000    497.41128   -274691.61            0   -272160.62    -1356.962    95.858563    103.79658    98.092949    4.0718907    2650.8319    37513.287 
  447000    501.16085    -274691.4            0   -272141.33   -1297.3447    95.858563    103.79658    98.092949    3.6711609    2657.3652    37504.326 
  448000    502.67445    -274653.4            0   -272095.62   -1396.2119    95.858563    103.79658    98.092949    4.2579186    2664.1476    37498.882 
  449000    498.63031   -274698.15            0   -272160.95   -1529.9723    95.858563    103.79658    98.092949     3.643105    2670.9811    37494.148 
  450000    502.57861   -274685.69            0    -272128.4   -1176.7423    95.858563    103.79658    98.092949    4.5210225    2677.5956    37486.339 
  451000    501.74734    -274692.9            0   -272139.84   -1327.8776    95.858563    103.79658    98.092949    3.7387048    2684.3918    37481.071 
  452000    498.36507   -274666.87            0   -272131.03   -1111.5865    95.858563    103.79658    98.092949    4.3144025    2690.9242    37472.123 
  453000    500.32916   -274669.74            0    -272123.9    -1469.502    95.858563    103.79658    98.092949    3.8506694    2697.4531    37463.139 
  454000    501.43993   -274681.72            0   -272130.24    -1200.391    95.858563    103.79658    98.092949    4.2496935    2704.3188    37458.832 
  455000    499.26067   -274680.58            0   -272140.18      -1113.2    95.858563    103.79658    98.092949    3.8477225     2711.161    37454.187 
  456000    504.13075   -274694.35            0   -272129.16    -1288.702    95.858563    103.79658    98.092949    4.6132823    2717.7708     37446.33 
  457000    499.59007    -274669.6            0   -272127.52   -1054.8422    95.858563    103.79658    98.092949    4.3480102    2724.4448    37439.361 
  458000    501.32864   -274686.72            0    -272135.8   -1182.1106    95.858563    103.79658    98.092949    3.5570605    2731.0659    37431.668 
  459000    500.09158   -274674.34            0   -272129.71   -1156.5207    95.858563    103.79658    98.092949    4.2850254    2737.6259    37423.145 
  460000    500.25241   -274659.29            0   -272113.84   -1263.0771    95.858563    103.79658    98.092949     4.226248    2744.4333    37418.005 
  461000    501.05376   -274673.77            0   -272124.24   -1332.4767    95.858563    103.79658    98.092949    3.8528334    2751.2414    37412.866 
  462000    497.36085   -274686.37            0   -272155.64   -1346.5121    95.858563    103.79658    98.092949     4.136327    2757.7912    37404.216 
  463000    500.39724    -274689.7            0   -272143.52   -1278.7587    95.858563    103.79658    98.092949    4.4252808    2764.8432     37402.37 
  464000    498.10372    -274660.2            0   -272125.68   -1219.2055    95.858563    103.79658    98.092949    4.0210606    2771.3971    37393.778 
  465000    501.02347   -274684.81            0   -272135.44    -1386.793    95.858563    103.79658    98.092949    4.0927704    2777.9734    37385.497 
  466000    501.77821   -274673.57            0   -272120.36   -1046.6685    95.858563    103.79658    98.092949    3.9109992    2784.8321    37381.016 
  467000    500.46095   -274690.66            0   -272144.15   -1283.2938    95.858563    103.79658    98.092949    4.0831114    2791.5794    37375.031 
  468000    502.65111   -274670.83            0   -272113.18   -956.88587    95.858563    103.79658    98.092949     3.790147    2798.2705    37368.291 
  469000    498.77132    -274679.9            0   -272141.99   -1046.9168    95.858563    103.79658    98.092949    4.2911328    2805.0478    37362.701 
  470000     503.5645   -274667.36            0   -272105.06   -1065.5894    95.858563    103.79658    98.092949    3.7884836    2811.5121    37352.946 
  471000    499.70949   -274690.27            0   -272147.59   -1186.4936    95.858563    103.79658    98.092949    3.7918626    2817.9534    37342.902 
  472000    503.07769   -274674.97            0   -272115.15   -1340.8784    95.858563    103.79658    98.092949    3.9810857    2824.9193     37339.81 
  473000    503.35216   -274690.57            0   -272129.35   -1176.7078    95.858563    103.79658    98.092949    3.5700613    2831.6897    37334.121 
  474000     501.4216   -274673.02            0   -272121.62   -1106.9331    95.858563    103.79658    98.092949    3.6099596    2838.3187    37326.568 
  475000    501.57068   -274674.64            0   -272122.48   -1073.7177    95.858563    103.79658    98.092949    3.9315518    2844.9518    37319.074 
  476000    495.89723   -274673.25            0   -272149.96   -925.11978    95.858563    103.79658    98.092949    4.6257303    2851.4734    37310.123 
  477000    501.68096   -274661.36            0   -272108.64   -1157.4812    95.858563    103.79658    98.092949    3.8163119    2858.0187    37301.495 
  478000    499.17846   -274684.31            0   -272144.33   -1293.0269    95.858563    103.79658    98.092949    5.4555845    2864.9836    37298.338 
  479000    500.43163   -274652.12            0   -272105.76   -1152.0852    95.858563    103.79658    98.092949    4.0695213    2871.8602    37294.017 
  480000    503.21106    -274682.8            0    -272122.3   -1568.4627    95.858563    103.79658    98.092949    3.8263704    2878.5667     37287.48 
  481000    498.01872   -274677.89            0   -272143.81   -1259.7081    95.858563    103.79658    98.092949    3.4983539    2885.2792    37281.021 
  482000    501.15617   -274675.04            0   -272124.99   -1115.3818    95.858563    103.79658    98.092949    3.9207733    2891.8965    37273.332 
  483000    498.70446   -274700.93            0   -272163.36   -1231.8233    95.858563    103.79658    98.092949    3.6589386    2898.4199    37264.442 
  484000    499.45918   -274686.94            0   -272145.53   -1117.2986    95.858563    103.79658    98.092949    3.9683107    2905.3375    37260.619 
  485000     502.5844   -274646.19            0   -272088.88   -1044.0993    95.858563    103.79658    98.092949     3.782797    2912.0549     37254.22 
  486000    499.41071   -274674.39            0   -272133.23   -1104.4554    95.858563    103.79658    98.092949    3.8465641    2918.8294    37248.548 
  487000    500.43049   -274662.48            0   -272116.12   -1089.0634    95.858563    103.79658    98.092949    4.1072813    2925.4825    37241.325 
  488000    498.31086   -274663.35            0   -272127.78    -1165.813    95.858563    103.79658    98.092949    3.9710206    2931.9698    37232.001 
  489000    495.78102   -274674.96            0   -272152.27   -1116.9973    95.858563    103.79658    98.092949    3.8980206    2938.4037    37222.012 
  490000    501.69034   -274668.78            0   -272116.02   -1123.9072    95.858563    103.79658    98.092949    4.2530789    2945.4958    37220.356 
[...]
15930000     499.9552   -274717.79            0   -272173.86    -1260.981    95.858563    103.79658    98.092949    3.7268658    66192.263    803.95461 
15931000    501.55318   -274700.22            0   -272148.15   -1309.0568    95.858563    103.79658    98.092949     3.876393    66198.794    797.25296 
15932000     499.1393    -274710.1            0   -272170.32   -1479.7439    95.858563    103.79658    98.092949    4.6784252    66205.306    790.55111 
15933000    500.62496   -274733.66            0   -272186.32   -1262.6972    95.858563    103.79658    98.092949    3.9945362    66211.921    783.85052 
15934000    500.55518    -274726.8            0   -272179.81   -1428.4944    95.858563    103.79658    98.092949    4.1819405    66218.864     777.1538 
15935000    500.57177   -274719.28            0    -272172.2   -1312.1787    95.858563    103.79658    98.092949    5.1085749     66225.63    770.45498 
15936000    499.45644   -274711.35            0   -272169.96   -1434.7764    95.858563    103.79658    98.092949    4.0216737    66232.362    763.75575 
15937000    499.12491   -274701.69            0   -272161.98   -1211.4515    95.858563    103.79658    98.092949    3.6040471    66238.844    757.05365 
15938000    498.85544   -274730.57            0   -272192.23   -1392.5102    95.858563    103.79658    98.092949    4.6527672    66245.368    750.35207 
15939000    503.69533   -274714.89            0   -272151.92   -1139.2181    95.858563    103.79658    98.092949    3.6920919    66252.061    743.65242 
15940000    497.48532   -274712.37            0   -272181.01   -1398.3008    95.858563    103.79658    98.092949    3.9180377    66259.016    736.95569 
15941000    498.57405   -274703.12            0   -272166.21   -1240.9382    95.858563    103.79658    98.092949    3.9531018     66265.79    730.25691 
15942000    504.64449   -274714.22            0   -272146.43   -1438.3758    95.858563    103.79658    98.092949    4.7304874    66272.611    723.55863 
15943000    503.39748    -274708.9            0   -272147.45   -1458.0908    95.858563    103.79658    98.092949    3.9825727    66279.025    716.85593 
15944000    500.73807   -274734.37            0   -272186.45   -1399.3182    95.858563    103.79658    98.092949    3.6983019    66285.526    710.15421 
15945000    498.90023   -274729.37            0   -272190.81   -1484.8958    95.858563    103.79658    98.092949    4.2988527    66292.185    703.45421 
15946000    500.64577   -274713.53            0   -272166.08   -1307.4795    95.858563    103.79658    98.092949    4.7895897    66299.077    696.75667 
15947000    501.58014   -274740.83            0   -272188.62   -1271.7889    95.858563    103.79658    98.092949    4.2356075    66305.806    690.05739 
15948000    501.46151    -274712.7            0    -272161.1   -937.42381    95.858563    103.79658    98.092949    4.2305592    66312.515    683.35791 
15949000    502.77202   -274725.32            0   -272167.05     -1325.95    95.858563    103.79658    98.092949    4.0250808    66318.982    676.65594 
15950000    499.73134   -274718.18            0   -272175.39   -1254.0498    95.858563    103.79658    98.092949    4.2017015    66325.469    669.95424 
15951000     498.5974   -274722.36            0   -272185.33   -1386.3775    95.858563    103.79658    98.092949    4.1787366    66332.127    663.25427 
15952000    498.84313   -274699.17            0   -272160.89   -1364.1586    95.858563    103.79658    98.092949    3.8038028    66338.989    656.55635 
15953000    497.87503   -274715.05            0    -272181.7   -1634.8185    95.858563    103.79658    98.092949    4.2812099    66345.695    649.85685 
15954000    502.39456   -274720.74            0   -272164.39   -1330.2118    95.858563    103.79658    98.092949    3.8605528    66352.484    643.15816 
15955000    497.97485   -274714.51            0   -272180.65   -1487.3485    95.858563    103.79658    98.092949     3.798968    66359.008    636.45692 
15956000    498.90746   -274683.16            0   -272144.56   -1451.8189    95.858563    103.79658    98.092949    4.0846603    66365.484    629.75525 
15957000    494.87023   -274724.27            0   -272206.21   -1300.5668    95.858563    103.79658    98.092949    3.9183784    66372.115    623.05508 
15958000    504.32036   -274721.49            0   -272155.35   -924.35493    95.858563    103.79658    98.092949     3.942155    66379.055     616.3578 
15959000    500.29216   -274709.01            0   -272163.36   -1314.5905    95.858563    103.79658    98.092949    3.8515267    66385.833    609.65898 
15960000    499.88709   -274725.36            0   -272181.77   -1026.8444    95.858563    103.79658    98.092949    4.6742827    66392.759    602.96148 
15961000    498.95269   -274718.45            0   -272179.62   -1373.6947    95.858563    103.79658    98.092949    3.9354752    66399.262    596.26015 
15962000    498.50822   -274711.25            0   -272174.67   -1419.9531    95.858563    103.79658    98.092949    3.5763693    66405.783    589.55901 
15963000    501.02748   -274733.19            0    -272183.8   -1453.5632    95.858563    103.79658    98.092949    3.6135288    66412.532    582.85991 
15964000    502.41222    -274714.8            0   -272158.36   -1415.6288    95.858563    103.79658    98.092949    4.5695746    66419.414    576.16195 
15965000    499.55062   -274714.24            0   -272172.37   -1119.2046    95.858563    103.79658    98.092949    3.8349789    66426.141    569.46263 
15966000    499.56275   -274723.96            0   -272182.02   -1312.0486    95.858563    103.79658    98.092949    4.0671623    66432.748    562.76229 
15967000    501.00966   -274707.32            0   -272158.02   -1176.9268    95.858563    103.79658    98.092949    3.8158122    66439.316    556.06164 
15968000    501.50756   -274732.66            0   -272180.83   -1388.2367    95.858563    103.79658    98.092949    4.3914054     66445.77    549.36006 
15969000    502.94661   -274723.46            0    -272164.3   -1297.0046    95.858563    103.79658    98.092949    3.6130475    66452.496    542.66077 
15970000    500.42813   -274728.29            0   -272181.95   -1357.1923    95.858563    103.79658    98.092949    4.2298585    66459.476    535.96351 
15971000    498.62369   -274722.58            0   -272185.42   -1323.2715    95.858563    103.79658    98.092949    4.0905774    66466.137    529.26366 
15972000    498.95473   -274717.73            0   -272178.89   -1237.9496    95.858563    103.79658    98.092949    4.0225415    66472.806    522.56389 
15973000    500.12662    -274720.5            0    -272175.7   -1306.7847    95.858563    103.79658    98.092949    3.8376875    66479.321    515.86292 
15974000    497.69358   -274727.94            0   -272195.51   -1358.8096    95.858563    103.79658    98.092949    3.6762173    66485.776    509.16153 
15975000    501.80752   -274713.02            0   -272159.66    -1022.353    95.858563    103.79658    98.092949    4.6459616    66492.459    502.46191 
15976000    500.57464   -274714.11            0   -272167.02   -1382.6506    95.858563    103.79658    98.092949    4.6669055    66499.275    495.76328 
15977000    497.97637   -274724.74            0   -272190.87    -1401.838    95.858563    103.79658    98.092949    3.7382874    66505.903    489.06325 
15978000    502.11833   -274700.76            0   -272145.82   -1090.2621    95.858563    103.79658    98.092949    3.9858953    66512.702    482.36448 
15979000    500.46412   -274697.08            0   -272150.55   -1140.9814    95.858563    103.79658    98.092949    4.7606042    66519.278    475.66409 
15980000    500.22953   -274699.76            0   -272154.43   -1268.4003    95.858563    103.79658    98.092949    3.6703961     66525.75    468.96299 
15981000    500.77201   -274717.79            0    -272169.7    -1614.383    95.858563    103.79658    98.092949    3.5488849      66532.5    462.26387 
15982000    501.84436   -274705.61            0   -272152.06   -1541.3932    95.858563    103.79658    98.092949    4.4770219    66539.538    455.56671 
15983000     500.2468   -274715.74            0   -272170.32   -1485.3712    95.858563    103.79658    98.092949    3.7058463    66546.268    448.86741 
15984000    501.07306   -274718.69            0   -272169.07   -1160.3271    95.858563    103.79658    98.092949    4.0257948    66552.912    442.16753 
15985000    501.80484    -274713.3            0   -272159.95   -1298.1906    95.858563    103.79658    98.092949     4.229385    66559.451    435.46697 
15986000    498.92074   -274725.53            0   -272186.86   -1246.4332    95.858563    103.79658    98.092949    4.3508463    66566.004    428.76653 
15987000    504.01387   -274712.63            0   -272148.04   -1142.8884    95.858563    103.79658    98.092949    3.6514102    66572.698    422.06702 
15988000    500.10385   -274718.62            0   -272173.93   -1377.2956    95.858563    103.79658    98.092949      3.91656    66579.546    415.36847 
15989000    500.24962   -274720.27            0   -272174.84    -1307.751    95.858563    103.79658    98.092949    3.5971353    66586.251    408.66901 
15990000    500.24547   -274753.87            0   -272208.46   -1402.4768    95.858563    103.79658    98.092949      3.92363    66593.008    401.96987 
15991000    499.80368   -274718.57            0    -272175.4   -1283.8915    95.858563    103.79658    98.092949    4.3894359    66599.605    395.26976 
15992000    498.70122   -274708.89            0   -272171.34   -1406.9361    95.858563    103.79658    98.092949    3.9041578    66606.091    388.56903 
15993000    502.05267   -274717.73            0   -272163.13   -1372.3279    95.858563    103.79658    98.092949    3.8720196    66612.888    381.87012 
15994000    499.84271   -274729.32            0   -272185.96   -1400.1313    95.858563    103.79658    98.092949      3.92386    66619.853    375.17214 
15995000    498.46823   -274736.75            0   -272200.38   -1359.0384    95.858563    103.79658    98.092949    3.8944012    66626.515    368.47243 
15996000    501.77513   -274736.82            0   -272183.62   -1099.6777    95.858563    103.79658    98.092949    4.3125674     66633.14    361.77253 
15997000    500.88391   -274740.01            0   -272191.35   -1474.4146    95.858563    103.79658    98.092949    4.0148417    66639.649    355.07202 
15998000    498.15873   -274706.15            0   -272171.36    -849.5972    95.858563    103.79658    98.092949    4.0168796    66646.201    348.37178 
15999000    502.92552   -274725.83            0   -272166.78    -1005.593    95.858563    103.79658    98.092949    4.5762056    66653.002    341.67284 
16000000    501.71946    -274735.4            0   -272182.49   -1252.5093    95.858563    103.79658    98.092949    3.8796394    66659.847    334.97411 
16001000    498.79944   -274690.73            0   -272152.68   -1116.2511    95.858563    103.79658    98.092949    4.0948847     66666.54    328.27459 
16002000    499.97037   -274728.25            0   -272184.23   -1344.2565    95.858563    103.79658    98.092949    3.8986611    66673.212    321.57498 
16003000    500.61625   -274722.61            0   -272175.31   -1325.5938    95.858563    103.79658    98.092949     4.430639    66679.702    314.87451 
16004000    502.00793   -274723.84            0   -272169.46   -914.74221    95.858563    103.79658    98.092949    3.9874131    66686.284    308.17451 
16005000    499.70473   -274715.16            0    -272172.5   -1247.6557    95.858563    103.79658    98.092949    4.0208654    66693.018    301.47522 
16006000    496.26243   -274707.42            0   -272182.28    -1399.575    95.858563    103.79658    98.092949    4.6655088    66699.828    294.77626 
16007000    501.37165   -274707.75            0   -272156.61   -1103.4123    95.858563    103.79658    98.092949    4.4466358    66706.475    288.07657 
16008000    499.71758   -274718.02            0    -272175.3   -1328.5338    95.858563    103.79658    98.092949    4.5762948    66713.154    281.37703 
16009000    502.23151   -274714.98            0   -272159.46   -781.78685    95.858563    103.79658    98.092949    3.6695135    66719.566    274.67639 
16010000    498.02021    -274720.6            0   -272186.51   -1113.4961    95.858563    103.79658    98.092949    4.5777459    66725.994    267.97588 
16011000    501.01038   -274702.75            0   -272153.45   -1059.7849    95.858563    103.79658    98.092949    4.3799195    66732.588    261.27607 
16012000     500.7401   -274720.06            0   -272172.13   -1130.8357    95.858563    103.79658    98.092949    4.5549841    66739.509    254.57753 
16013000    500.07128   -274719.18            0   -272174.66   -1143.7265    95.858563    103.79658    98.092949     4.049322    66746.189    247.87805 
16014000    500.75175   -274733.91            0   -272185.92   -1449.7037    95.858563    103.79658    98.092949    4.5186072    66752.969    241.17893 
16015000    501.02947   -274713.69            0   -272164.29   -1442.1701    95.858563    103.79658    98.092949    4.0042319    66759.443    234.47873 
16016000    497.77496   -274720.39            0   -272187.55   -1028.4343    95.858563    103.79658    98.092949    4.0928264    66765.958    227.77871 
16017000    496.67729   -274712.94            0   -272185.69   -1438.7561    95.858563    103.79658    98.092949    4.0619393    66772.799     221.0798 
16018000    497.60599    -274726.3            0   -272194.32   -1222.3249    95.858563    103.79658    98.092949    3.6499339    66779.734    214.38117 
16019000    503.29251   -274718.18            0   -272157.26   -1330.4959    95.858563    103.79658    98.092949    4.1055817    66786.429    207.68174 
16020000    502.79207    -274723.2            0   -272164.83   -1396.9669    95.858563    103.79658    98.092949    3.6839091    66793.062    200.98213 
16021000    500.18566   -274731.94            0   -272186.84   -1065.7761    95.858563    103.79658    98.092949    3.8811129    66799.596    194.28225 
16022000    501.67089   -274715.16            0    -272162.5   -1406.1863    95.858563    103.79658    98.092949    3.6308258     66806.14    187.58242 
16023000    496.91353   -274704.27            0   -272175.81   -1264.1612    95.858563    103.79658    98.092949     3.960568    66812.916    180.88326 
16024000    501.38945    -274705.4            0   -272154.16   -1251.8288    95.858563    103.79658    98.092949    4.1781897     66819.79    174.18433 
16025000    499.65356    -274701.7            0    -272159.3   -1432.8268    95.858563    103.79658    98.092949    4.3658775    66826.437     167.4848 
16026000     500.9536   -274733.32            0    -272184.3   -1263.9882    95.858563    103.79658    98.092949    4.1673943    66833.132     160.7854 
16027000    502.96615   -274716.22            0   -272156.96   -1211.9879    95.858563    103.79658    98.092949    4.0524146    66839.617    154.08551 
16028000    499.03672   -274728.43            0   -272189.17   -1133.6489    95.858563    103.79658    98.092949    4.2577441    66846.128    147.38573 
16029000    499.71589   -274721.34            0   -272178.62   -1231.4732    95.858563    103.79658    98.092949    4.8779521    66852.781    140.68628 
16030000    499.87611   -274713.58            0   -272170.04   -1269.0733    95.858563    103.79658    98.092949    4.1335146    66859.652    133.98728 
16031000    499.49249   -274723.17            0   -272181.59   -1269.1912    95.858563    103.79658    98.092949    4.0494371     66866.34    127.28789 
16032000    499.99135   -274722.38            0   -272178.26    -1475.736    95.858563    103.79658    98.092949    4.2321444        66873    120.58846 
16033000    500.55937   -274703.51            0    -272156.5   -1333.0834    95.858563    103.79658    98.092949    4.0124097     66879.49    113.88874 
16034000    502.25945   -274718.68            0   -272163.02   -1262.7885    95.858563    103.79658    98.092949      3.79588    66886.024    107.18914 
16035000    499.21401   -274709.91            0   -272169.75   -1117.6692    95.858563    103.79658    98.092949    3.9946295    66892.724    100.48982 
16036000    499.29551   -274716.41            0   -272175.83    -1432.255    95.858563    103.79658    98.092949    3.9666955    66899.732    93.790931 
16037000    500.16652   -274736.88            0   -272191.87    -1319.408    95.858563    103.79658    98.092949    4.0929036    66906.448    87.091602 
16038000    502.33196   -274710.28            0   -272154.25   -1162.3892    95.858563    103.79658    98.092949    4.4186383    66913.061    80.392144 
16039000    498.57172   -274731.59            0   -272194.69   -1425.1173    95.858563    103.79658    98.092949     3.791362    66919.566    73.692585 
16040000    496.43806   -274728.01            0   -272201.97   -1481.0848    95.858563    103.79658    98.092949    3.8882175    66926.059    66.993052 
16041000    495.91561   -274717.15            0   -272193.77   -1434.4635    95.858563    103.79658    98.092949    3.5963735    66932.762     60.29375 
16042000    500.47893   -274724.15            0   -272177.55   -1225.7826    95.858563    103.79658    98.092949    3.8495142    66939.707    53.594641 
16043000    500.43064   -274731.12            0   -272184.76   -1276.7213    95.858563    103.79658    98.092949    3.8410729    66946.459    46.895348 
16044000    498.03046   -274722.62            0   -272188.48   -1170.0884    95.858563    103.79658    98.092949    3.8319696    66953.229    40.196055 
16045000    502.51293   -274730.74            0   -272173.79   -1543.0608    95.858563    103.79658    98.092949    3.7405252    66959.667    33.496582 
16046000    500.19224   -274728.97            0   -272183.83   -1359.2335    95.858563    103.79658    98.092949    4.4633496    66966.192    26.797196 
16047000    501.89063   -274749.56            0   -272195.78   -1182.6617    95.858563    103.79658    98.092949    4.0505511    66972.875    20.097892 
16048000     501.3923   -274716.03            0   -272164.78   -1043.0866    95.858563    103.79658    98.092949    3.9354118    66979.764    13.398633 
16049000    500.81455   -274741.13            0   -272192.82   -1305.4739    95.858563    103.79658    98.092949    4.6020823    66986.435    6.6993135 
16050000    501.08508   -274735.46            0   -272185.78   -1181.1354    95.858563    103.79658    98.092949    4.4755044    66993.264            0 
Loop time of 66993.3 on 160 procs for 10000000 steps with 39366 atoms

Performance: 12.897 ns/day, 1.861 hours/ns, 149.269 timesteps/s
99.0% CPU use with 160 MPI tasks x 1 OpenMP threads

MPI task timing breakdown:
Section |  min time  |  avg time  |  max time  |%varavg| %total
---------------------------------------------------------------
Pair    | 14571      | 15202      | 16147      | 290.1 | 22.69
Kspace  | 41271      | 42132      | 42918      | 164.8 | 62.89
Neigh   | 625.91     | 659.31     | 703.84     |  69.6 |  0.98
Comm    | 7032.7     | 7519.4     | 8157.6     | 265.4 | 11.22
Output  | 167.88     | 167.92     | 167.93     |   0.0 |  0.25
Modify  | 948.52     | 1153       | 1387.2     | 323.9 |  1.72
Other   |            | 159.5      |            |       |  0.24

Nlocal:    246.037 ave 263 max 229 min
Histogram: 3 5 17 20 29 40 16 24 4 2
Nghost:    3842.99 ave 3899 max 3792 min
Histogram: 3 12 19 27 22 31 20 18 6 2
Neighs:    56926.8 ave 61548 max 52876 min
Histogram: 6 9 17 30 33 23 15 18 5 4

Total # of neighbors = 9108285
Ave neighs/atom = 231.374
Neighbor list builds = 326786
Dangerous builds = 0

# Final Commands
variable        final_energy equal etotal
print           "final_energy: ${'final_energy'}"
ERROR on proc 0: Substitution for illegal variable 'final_energy' (../input.cpp:553)
Last command: final_energy: ${'final_energy'
