********************************************************************************
*                       GENERAL UTILITY LATTICE PROGRAM                        *
*                                 Julian Gale                                  *
*                       Curtin Institute for Computation                       *
*                    School of Molecular and Life Sciences                     *
*                    Curtin University, Western Australia                      *
********************************************************************************
* Version = 5.2.0 * Last modified =   1st June 2020                            *
********************************************************************************
*  fit          - perform fitting run                                          *
*  optimise     - perform optimisation run after fitting                       *
*  conp         - constant pressure calculation                                *
*  nosymmetry   - turn off symmetry after initial structure generation         *
*  simultaneous - relax shell positions and radii during fitting               *
*  compare      - compare initial and final structures                         *
********************************************************************************

  Job Started  at 15:20.27  8th April      2022                               

  Number of CPUs =     1


  Total number of configurations input =      1

********************************************************************************
*  Input for Configuration =   1                                               *
********************************************************************************

  Formula = Sc2Cl6                                                      

  Number of irreducible atoms/shells =      14


  Total number atoms/shells =      14

  Dimensionality = 3               :  Bulk   



  Cartesian lattice vectors (Angstroms) :

        7.453100    0.000000    0.000000
        4.624571    5.844830    0.000000
        4.624571    2.238000    5.399388

  Cell parameters (Angstroms/Degrees):

  a =       7.4531    alpha =  51.6481
  b =       7.4531    beta  =  51.6481
  c =       7.4531    gamma =  51.6481

  Initial cell volume =         235.208707 Angs**3

  Temperature of configuration =   0.00     K 

  Pressure of configuration =         0.000 GPa 

  Fractional coordinates of asymmetric unit :

--------------------------------------------------------------------------------
   No.  Atomic       x           y          z         Charge      Occupancy
        Label      (Frac)      (Frac)     (Frac)        (e)         (Frac)  
--------------------------------------------------------------------------------
      1 Sc    c    0.666064    0.666064    0.666064     3.00000    1.000000    
      2 Sc    c    0.333936 *  0.333936 *  0.333936 *   3.00000    1.000000    
      3 Cl    c    0.294736 *  0.926265 *  0.556066 *   1.48500    1.000000    
      4 Cl    c    0.926265 *  0.556066 *  0.294736 *   1.48500    1.000000    
      5 Cl    c    0.443934 *  0.705264 *  0.073735 *   1.48500    1.000000    
      6 Cl    c    0.073735 *  0.443934 *  0.705264 *   1.48500    1.000000    
      7 Cl    c    0.705264 *  0.073735 *  0.443934 *   1.48500    1.000000    
      8 Cl    c    0.556066 *  0.294736 *  0.926265 *   1.48500    1.000000    
      9 Cl    s    0.294736 *  0.926265 *  0.556066 *  -2.48500    1.000000    
     10 Cl    s    0.926265 *  0.556066 *  0.294736 *  -2.48500    1.000000    
     11 Cl    s    0.443934 *  0.705264 *  0.073735 *  -2.48500    1.000000    
     12 Cl    s    0.073735 *  0.443934 *  0.705264 *  -2.48500    1.000000    
     13 Cl    s    0.705264 *  0.073735 *  0.443934 *  -2.48500    1.000000    
     14 Cl    s    0.556066 *  0.294736 *  0.926265 *  -2.48500    1.000000    
--------------------------------------------------------------------------------



********************************************************************************
*  General input information                                                   *
********************************************************************************

  Species output for all configurations : 

--------------------------------------------------------------------------------
  Species    Type    Atomic    Atomic    Charge       Radii (Angs)     Library
                     Number     Mass       (e)     Cova   Ionic  VDW   Symbol
--------------------------------------------------------------------------------
    Sc       Core       21      44.96   3.000000   1.440  0.000  2.150          
    Cl       Core       17      35.45   1.485000   0.990  0.000  1.650          
    Cl       Shell      17       0.00  -2.485000   0.990  0.000  1.650          
--------------------------------------------------------------------------------


  Lattice summation method               =    Ewald          (3-D)
                                         =    Parry          (2-D)
                                         =    Saunders et al (1-D)
  Accuracy factor for lattice sums       =   12.000


  Analytic derivatives to be used

  Time limit = Infinity

  Maximum range for interatomic potentials =    100000.000000 Angstroms

  General interatomic potentials :

--------------------------------------------------------------------------------
Atom  Types   Potential      Parameter       Value         Units   Cutoffs(Ang)
  1     2                                                            Min /  Max 
--------------------------------------------------------------------------------
Cl   c Cl   s Spring (c-s)  Spring k 2       29.380000    eV*Ang^-2 0.000  0.800
                            Spring k 4       0.0000000    eV*Ang^-4 
--------------------------------------------------------------------------------
Sc   c Cl   s Buckingham    Buckingham A     1736.1200    eV        0.000 12.000
                            Buckingham rho  0.29270000    Ang       
                            Buckingham C     0.0000000    eV*Ang^6  
--------------------------------------------------------------------------------
Cl   s Cl   s Buckingham    Buckingham A     1227.2000    eV        0.000 12.000
                            Buckingham rho  0.32100000    Ang       
                            Buckingham C     14.530000    eV*Ang^6  
--------------------------------------------------------------------------------


  Number of variables   =   20
  Number of observables =   45

--------------------------------------------------------------------------------
   Observable no.  Type           Observable    Weight       Reference  Confign 
--------------------------------------------------------------------------------
          1        Derivative        0.000000        1.0000    2 x         1
          2        Derivative        0.000000        1.0000    2 y         1
          3        Derivative        0.000000        1.0000    2 z         1
          4        Derivative        0.000000        1.0000    3 x         1
          5        Derivative        0.000000        1.0000    3 y         1
          6        Derivative        0.000000        1.0000    3 z         1
          7        Derivative        0.000000        1.0000    4 x         1
          8        Derivative        0.000000        1.0000    4 y         1
          9        Derivative        0.000000        1.0000    4 z         1
         10        Derivative        0.000000        1.0000    5 x         1
         11        Derivative        0.000000        1.0000    5 y         1
         12        Derivative        0.000000        1.0000    5 z         1
         13        Derivative        0.000000        1.0000    6 x         1
         14        Derivative        0.000000        1.0000    6 y         1
         15        Derivative        0.000000        1.0000    6 z         1
         16        Derivative        0.000000        1.0000    7 x         1
         17        Derivative        0.000000        1.0000    7 y         1
         18        Derivative        0.000000        1.0000    7 z         1
         19        Derivative        0.000000        1.0000    8 x         1
         20        Derivative        0.000000        1.0000    8 y         1
         21        Derivative        0.000000        1.0000    8 z         1
         22        Derivative        0.000000        1.0000    9 x         1
         23        Derivative        0.000000        1.0000    9 y         1
         24        Derivative        0.000000        1.0000    9 z         1
         25        Derivative        0.000000        1.0000   10 x         1
         26        Derivative        0.000000        1.0000   10 y         1
         27        Derivative        0.000000        1.0000   10 z         1
         28        Derivative        0.000000        1.0000   11 x         1
         29        Derivative        0.000000        1.0000   11 y         1
         30        Derivative        0.000000        1.0000   11 z         1
         31        Derivative        0.000000        1.0000   12 x         1
         32        Derivative        0.000000        1.0000   12 y         1
         33        Derivative        0.000000        1.0000   12 z         1
         34        Derivative        0.000000        1.0000   13 x         1
         35        Derivative        0.000000        1.0000   13 y         1
         36        Derivative        0.000000        1.0000   13 z         1
         37        Derivative        0.000000        1.0000   14 x         1
         38        Derivative        0.000000        1.0000   14 y         1
         39        Derivative        0.000000        1.0000   14 z         1
         40        Derivative        0.000000        1.0000    a           1
         41        Derivative        0.000000        1.0000    b           1
         42        Derivative        0.000000        1.0000    c           1
         43        Derivative        0.000000        1.0000    alpha       1
         44        Derivative        0.000000        1.0000    beta        1
         45        Derivative        0.000000        1.0000    gamma       1
--------------------------------------------------------------------------------

  Variables :

--------------------------------------------------------------------------------
     Parameter No.       Parameter Value          Parameter Type  Species
--------------------------------------------------------------------------------
             1               1736.120000          Buckingham A   
             2                  0.292700          Buckingham rho 
             3                  0.294736          Shell position    1   9 x
             4                  0.926265          Shell position    1   9 y
             5                  0.556066          Shell position    1   9 z
             6                  0.926265          Shell position    1  10 x
             7                  0.556066          Shell position    1  10 y
             8                  0.294736          Shell position    1  10 z
             9                  0.443934          Shell position    1  11 x
            10                  0.705264          Shell position    1  11 y
            11                  0.073735          Shell position    1  11 z
            12                  0.073735          Shell position    1  12 x
            13                  0.443934          Shell position    1  12 y
            14                  0.705264          Shell position    1  12 z
            15                  0.705264          Shell position    1  13 x
            16                  0.073735          Shell position    1  13 y
            17                  0.443934          Shell position    1  13 z
            18                  0.556066          Shell position    1  14 x
            19                  0.294736          Shell position    1  14 y
            20                  0.926265          Shell position    1  14 z
--------------------------------------------------------------------------------

  Simultaneous optimisation will be performed during fitting
  First derivatives of residuals to be used in fitting

  Maximum no. of cycles   =       5000
  Maximum step size       =  1000.0000
  Tolerance on parameters =  0.0000100
  Tolerance on function   =  0.0000100
  Tolerance on gradient   =  0.0001000
  Differencing interval   =  0.0001000

  Start of fitting :

  Cycle:      0  Sum sqs:  197023.422752  Gnorm:3977362.225276  CPU:    0.152
  ** Hessian calculated **
  Cycle:      1  Sum sqs:   82773.644801  Gnorm:2143912.439961  CPU:    0.285
  Cycle:      2  Sum sqs:   66521.219033  Gnorm:2333939.492750  CPU:    0.406
  Cycle:      3  Sum sqs:   19489.079330  Gnorm:1280887.049681  CPU:    0.537
  Cycle:      4  Sum sqs:   12372.375270  Gnorm: 835687.049824  CPU:    0.667
  Cycle:      5  Sum sqs:    1872.118130  Gnorm:  89934.810019  CPU:    0.788
  Cycle:      6  Sum sqs:    1586.122120  Gnorm: 108228.145784  CPU:    0.902
  Cycle:      7  Sum sqs:     759.384510  Gnorm:  71417.315125  CPU:    1.018
  Cycle:      8  Sum sqs:     355.230037  Gnorm:  71192.357160  CPU:    1.132
  Cycle:      9  Sum sqs:      56.587499  Gnorm:  13620.749583  CPU:    1.251
  Cycle:     10  Sum sqs:      51.133233  Gnorm:   8570.626801  CPU:    1.364
  Cycle:     11  Sum sqs:      48.340457  Gnorm:   7270.318343  CPU:    1.476
  Cycle:     12  Sum sqs:      39.749169  Gnorm:   6118.287796  CPU:    1.590
  Cycle:     13  Sum sqs:      38.948258  Gnorm:   2191.807332  CPU:    1.704
  Cycle:     14  Sum sqs:      38.864666  Gnorm:     95.163098  CPU:    1.820
  Cycle:     15  Sum sqs:      38.860471  Gnorm:    107.684220  CPU:    1.931
  Cycle:     16  Sum sqs:      38.854601  Gnorm:     66.678029  CPU:    2.045
  Cycle:     17  Sum sqs:      38.854238  Gnorm:     79.698123  CPU:    2.160
  Cycle:     18  Sum sqs:      38.853989  Gnorm:     77.239145  CPU:    2.274
  Cycle:     19  Sum sqs:      38.853732  Gnorm:     12.083962  CPU:    2.389
  Cycle:     20  Sum sqs:      38.853708  Gnorm:     16.294836  CPU:    2.501
  ** Hessian calculated **
  Cycle:     21  Sum sqs:      38.853687  Gnorm:     33.405327  CPU:    2.717
  Cycle:     22  Sum sqs:      38.853657  Gnorm:     25.375463  CPU:    2.832
  Cycle:     23  Sum sqs:      38.853560  Gnorm:     40.996381  CPU:    2.947
  Cycle:     24  Sum sqs:      38.853327  Gnorm:     63.856679  CPU:    3.066
  Cycle:     25  Sum sqs:      38.851654  Gnorm:     51.722329  CPU:    3.180
  Cycle:     26  Sum sqs:      38.847862  Gnorm:    220.384010  CPU:    3.294
  Cycle:     27  Sum sqs:      38.844227  Gnorm:    121.884741  CPU:    3.408
  Cycle:     28  Sum sqs:      38.841965  Gnorm:    181.067620  CPU:    3.520
  Cycle:     29  Sum sqs:      38.832857  Gnorm:    667.712612  CPU:    3.636
  Cycle:     30  Sum sqs:      38.815249  Gnorm:    885.859371  CPU:    3.752
  Cycle:     31  Sum sqs:      38.783186  Gnorm:   1085.152466  CPU:    3.866
  Cycle:     32  Sum sqs:      38.765398  Gnorm:    261.546548  CPU:    3.980
  Cycle:     33  Sum sqs:      38.746527  Gnorm:    807.642069  CPU:    4.097
  Cycle:     34  Sum sqs:      38.704232  Gnorm:   1606.156197  CPU:    4.213
  Cycle:     35  Sum sqs:      38.684107  Gnorm:    684.060555  CPU:    4.330
  Cycle:     36  Sum sqs:      38.642434  Gnorm:    594.133676  CPU:    4.452
  Cycle:     37  Sum sqs:      38.630197  Gnorm:   1199.847733  CPU:    4.563
  Cycle:     38  Sum sqs:      38.607633  Gnorm:    399.937686  CPU:    4.677
  Cycle:     39  Sum sqs:      38.583663  Gnorm:    326.007121  CPU:    4.795
  Cycle:     40  Sum sqs:      38.572315  Gnorm:    408.298123  CPU:    4.907
  ** Hessian calculated **
  Cycle:     41  Sum sqs:      38.569292  Gnorm:    243.887425  CPU:    5.130
  Cycle:     42  Sum sqs:      38.566436  Gnorm:    154.042497  CPU:    5.245
  Cycle:     43  Sum sqs:      38.565587  Gnorm:     62.187901  CPU:    5.356
  Cycle:     44  Sum sqs:      38.564969  Gnorm:    114.929915  CPU:    5.472
  Cycle:     45  Sum sqs:      38.562966  Gnorm:     26.390064  CPU:    5.586
  Cycle:     46  Sum sqs:      38.562925  Gnorm:     20.168964  CPU:    5.700
  Cycle:     47  Sum sqs:      38.562396  Gnorm:     37.984115  CPU:    5.814
  Cycle:     48  Sum sqs:      38.562286  Gnorm:     56.606978  CPU:    5.928
  Cycle:     49  Sum sqs:      38.561613  Gnorm:    183.470170  CPU:    6.044
  Cycle:     50  Sum sqs:      38.557137  Gnorm:     79.199132  CPU:    6.158
  Cycle:     51  Sum sqs:      38.551870  Gnorm:    410.113764  CPU:    6.272
  Cycle:     52  Sum sqs:      38.547501  Gnorm:    383.878079  CPU:    6.388
  Cycle:     53  Sum sqs:      38.538941  Gnorm:    305.783593  CPU:    6.510
  Cycle:     54  Sum sqs:      38.531284  Gnorm:    219.780509  CPU:    6.631
  Cycle:     55  Sum sqs:      38.519218  Gnorm:    314.227900  CPU:    6.748
  Cycle:     56  Sum sqs:      38.512971  Gnorm:    762.360073  CPU:    6.859
  Cycle:     57  Sum sqs:      38.509769  Gnorm:    463.625480  CPU:    6.973
  Cycle:     58  Sum sqs:      38.478859  Gnorm:    939.720560  CPU:    7.090
  Cycle:     59  Sum sqs:      38.455583  Gnorm:   1951.066175  CPU:    7.203
  Cycle:     60  Sum sqs:      38.423754  Gnorm:    823.472751  CPU:    7.317
  ** Hessian calculated **
  Cycle:     61  Sum sqs:      38.415548  Gnorm:    403.870460  CPU:    7.535
  Cycle:     62  Sum sqs:      38.411450  Gnorm:     55.717052  CPU:    7.646
  Cycle:     63  Sum sqs:      38.410538  Gnorm:    167.899096  CPU:    7.760
  Cycle:     64  Sum sqs:      38.408225  Gnorm:     86.111599  CPU:    7.875
  Cycle:     65  Sum sqs:      38.407894  Gnorm:     31.723001  CPU:    7.989
  Cycle:     66  Sum sqs:      38.407712  Gnorm:     25.282137  CPU:    8.102
  Cycle:     67  Sum sqs:      38.407043  Gnorm:     17.276914  CPU:    8.216
  Cycle:     68  Sum sqs:      38.406797  Gnorm:     87.935668  CPU:    8.327
  Cycle:     69  Sum sqs:      38.406183  Gnorm:    119.230393  CPU:    8.447
  Cycle:     70  Sum sqs:      38.405643  Gnorm:     67.577453  CPU:    8.561
  Cycle:     71  Sum sqs:      38.405278  Gnorm:    119.133945  CPU:    8.674
  Cycle:     72  Sum sqs:      38.385917  Gnorm:    388.788541  CPU:    8.788
  Cycle:     73  Sum sqs:      38.380157  Gnorm:    259.220044  CPU:    8.903
  Cycle:     74  Sum sqs:      38.372109  Gnorm:    146.368865  CPU:    9.027
  Cycle:     75  Sum sqs:      38.365981  Gnorm:    305.432447  CPU:    9.144
  Cycle:     76  Sum sqs:      38.348133  Gnorm:    675.707827  CPU:    9.260
  Cycle:     77  Sum sqs:      38.292055  Gnorm:   1238.504287  CPU:    9.374
  Cycle:     78  Sum sqs:      38.270192  Gnorm:    290.975405  CPU:    9.488
  Cycle:     79  Sum sqs:      38.243040  Gnorm:    563.440860  CPU:    9.604
  Cycle:     80  Sum sqs:      38.216996  Gnorm:    617.327431  CPU:    9.718
  ** Hessian calculated **
  Cycle:     81  Sum sqs:      38.211848  Gnorm:    161.305240  CPU:    9.936
  Cycle:     82  Sum sqs:      38.209089  Gnorm:     74.277181  CPU:   10.050
  Cycle:     83  Sum sqs:      38.207653  Gnorm:    212.308912  CPU:   10.164
  Cycle:     84  Sum sqs:      38.203883  Gnorm:    127.296843  CPU:   10.281
  Cycle:     85  Sum sqs:      38.203369  Gnorm:     20.535560  CPU:   10.395
  Cycle:     86  Sum sqs:      38.202919  Gnorm:     62.524752  CPU:   10.509
  Cycle:     87  Sum sqs:      38.202703  Gnorm:     14.478762  CPU:   10.620
  Cycle:     88  Sum sqs:      38.202452  Gnorm:     90.267683  CPU:   10.738
  Cycle:     89  Sum sqs:      38.202014  Gnorm:    114.127989  CPU:   10.853
  Cycle:     90  Sum sqs:      38.200889  Gnorm:     72.743764  CPU:   10.967
  Cycle:     91  Sum sqs:      38.174428  Gnorm:    882.751448  CPU:   11.084
  Cycle:     92  Sum sqs:      38.162520  Gnorm:   1113.456461  CPU:   11.195
  Cycle:     93  Sum sqs:      38.148183  Gnorm:    201.228550  CPU:   11.309
  Cycle:     94  Sum sqs:      38.146178  Gnorm:    183.752440  CPU:   11.422
  Cycle:     95  Sum sqs:      38.132451  Gnorm:    316.315018  CPU:   11.542
  Cycle:     96  Sum sqs:      38.124995  Gnorm:    402.231480  CPU:   11.653
  Cycle:     97  Sum sqs:      38.103276  Gnorm:    845.458415  CPU:   11.767
  Cycle:     98  Sum sqs:      38.090430  Gnorm:    638.807849  CPU:   11.881
  Cycle:     99  Sum sqs:      38.087381  Gnorm:    625.586175  CPU:   12.000
  Cycle:    100  Sum sqs:      38.085711  Gnorm:    621.810669  CPU:   12.117
  ** Hessian calculated **
  Cycle:    101  Sum sqs:      38.076321  Gnorm:    119.247307  CPU:   12.332
  Cycle:    102  Sum sqs:      38.075002  Gnorm:    351.621930  CPU:   12.446
  Cycle:    103  Sum sqs:      38.058905  Gnorm:    179.454886  CPU:   12.560
  Cycle:    104  Sum sqs:      38.057141  Gnorm:    146.901726  CPU:   12.672
  Cycle:    105  Sum sqs:      38.055940  Gnorm:     52.130725  CPU:   12.787
  Cycle:    106  Sum sqs:      38.054187  Gnorm:    101.154496  CPU:   12.898
  Cycle:    107  Sum sqs:      38.053725  Gnorm:     17.940647  CPU:   13.013
  Cycle:    108  Sum sqs:      38.053251  Gnorm:     57.441817  CPU:   13.127
  Cycle:    109  Sum sqs:      38.053168  Gnorm:     23.333468  CPU:   13.241
  Cycle:    110  Sum sqs:      38.053091  Gnorm:     42.808470  CPU:   13.355
  Cycle:    111  Sum sqs:      38.052438  Gnorm:    162.981284  CPU:   13.469
  Cycle:    112  Sum sqs:      38.045914  Gnorm:    140.677032  CPU:   13.590
  Cycle:    113  Sum sqs:      38.035376  Gnorm:    108.548128  CPU:   13.712
  Cycle:    114  Sum sqs:      38.020037  Gnorm:    342.890548  CPU:   13.831
  Cycle:    115  Sum sqs:      38.013559  Gnorm:   1028.784089  CPU:   13.942
  Cycle:    116  Sum sqs:      38.003615  Gnorm:    322.577235  CPU:   14.057
  Cycle:    117  Sum sqs:      37.978046  Gnorm:    497.138247  CPU:   14.174
  Cycle:    118  Sum sqs:      37.967096  Gnorm:    675.896718  CPU:   14.285
  Cycle:    119  Sum sqs:      37.935615  Gnorm:   1068.363707  CPU:   14.399
  Cycle:    120  Sum sqs:      37.910897  Gnorm:    390.697535  CPU:   14.514
  ** Hessian calculated **
  Cycle:    121  Sum sqs:      37.908013  Gnorm:    232.209996  CPU:   14.736
  Cycle:    122  Sum sqs:      37.906447  Gnorm:    199.866518  CPU:   14.850
  Cycle:    123  Sum sqs:      37.900627  Gnorm:    327.574513  CPU:   14.967
  Cycle:    124  Sum sqs:      37.890108  Gnorm:    110.410003  CPU:   15.081
  Cycle:    125  Sum sqs:      37.887912  Gnorm:     61.675526  CPU:   15.193
  Cycle:    126  Sum sqs:      37.887683  Gnorm:     35.103211  CPU:   15.307
  Cycle:    127  Sum sqs:      37.886812  Gnorm:     19.891981  CPU:   15.421
  Cycle:    128  Sum sqs:      37.886767  Gnorm:     37.952514  CPU:   15.535
  Cycle:    129  Sum sqs:      37.886162  Gnorm:     27.114477  CPU:   15.649
  Cycle:    130  Sum sqs:      37.885982  Gnorm:     76.465917  CPU:   15.761
  Cycle:    131  Sum sqs:      37.884389  Gnorm:    187.804631  CPU:   15.875
  Cycle:    132  Sum sqs:      37.881130  Gnorm:     69.064830  CPU:   15.989
  Cycle:    133  Sum sqs:      37.870063  Gnorm:    476.740470  CPU:   16.103
  Cycle:    134  Sum sqs:      37.853326  Gnorm:    307.700708  CPU:   16.222
  Cycle:    135  Sum sqs:      37.844125  Gnorm:    593.773921  CPU:   16.339
  Cycle:    136  Sum sqs:      37.835028  Gnorm:    505.737237  CPU:   16.453
  Cycle:    137  Sum sqs:      37.833046  Gnorm:    331.051510  CPU:   16.566
  Cycle:    138  Sum sqs:      37.821353  Gnorm:   1032.594879  CPU:   16.680
  Cycle:    139  Sum sqs:      37.803001  Gnorm:    589.041419  CPU:   16.792
  Cycle:    140  Sum sqs:      37.799924  Gnorm:    866.018175  CPU:   16.906
  ** Hessian calculated **
  Cycle:    141  Sum sqs:      37.791102  Gnorm:    144.187359  CPU:   17.124
  Cycle:    142  Sum sqs:      37.788280  Gnorm:     71.819128  CPU:   17.238
  Cycle:    143  Sum sqs:      37.787970  Gnorm:     82.294247  CPU:   17.352
  Cycle:    144  Sum sqs:      37.786967  Gnorm:    129.806689  CPU:   17.466
  Cycle:    145  Sum sqs:      37.785844  Gnorm:     18.981844  CPU:   17.579
  Cycle:    146  Sum sqs:      37.785801  Gnorm:     24.040951  CPU:   17.694
  Cycle:    147  Sum sqs:      37.785179  Gnorm:     36.794899  CPU:   17.807
  Cycle:    148  Sum sqs:      37.784906  Gnorm:     87.161289  CPU:   17.919
  Cycle:    149  Sum sqs:      37.784289  Gnorm:    143.862931  CPU:   18.033
  Cycle:    150  Sum sqs:      37.780638  Gnorm:     76.843204  CPU:   18.147
  Cycle:    151  Sum sqs:      37.765430  Gnorm:    650.487307  CPU:   18.261
  Cycle:    152  Sum sqs:      37.748493  Gnorm:    775.163994  CPU:   18.378
  Cycle:    153  Sum sqs:      37.720622  Gnorm:    645.953610  CPU:   18.489
  Cycle:    154  Sum sqs:      37.714181  Gnorm:    202.213077  CPU:   18.603
  Cycle:    155  Sum sqs:      37.697436  Gnorm:    611.418431  CPU:   18.720
  Cycle:    156  Sum sqs:      37.678894  Gnorm:   1019.013268  CPU:   18.836
  Cycle:    157  Sum sqs:      37.625433  Gnorm:    828.833345  CPU:   18.950
  Cycle:    158  Sum sqs:      37.613596  Gnorm:    285.783123  CPU:   19.065
  Cycle:    159  Sum sqs:      37.580847  Gnorm:    501.263601  CPU:   19.181
  Cycle:    160  Sum sqs:      37.571946  Gnorm:    905.069270  CPU:   19.293
  ** Hessian calculated **
  Cycle:    161  Sum sqs:      37.562283  Gnorm:    163.516755  CPU:   19.511
  Cycle:    162  Sum sqs:      37.557490  Gnorm:    136.088323  CPU:   19.625
  Cycle:    163  Sum sqs:      37.555717  Gnorm:    142.993161  CPU:   19.739
  Cycle:    164  Sum sqs:      37.550780  Gnorm:    312.754796  CPU:   19.853
  Cycle:    165  Sum sqs:      37.547402  Gnorm:     34.155006  CPU:   19.967
  Cycle:    166  Sum sqs:      37.547333  Gnorm:     25.399149  CPU:   20.081
  Cycle:    167  Sum sqs:      37.546703  Gnorm:     16.040112  CPU:   20.196
  Cycle:    168  Sum sqs:      37.546583  Gnorm:     73.941925  CPU:   20.307
  Cycle:    169  Sum sqs:      37.546241  Gnorm:    151.820316  CPU:   20.421
  Cycle:    170  Sum sqs:      37.541863  Gnorm:     85.964236  CPU:   20.535
  Cycle:    171  Sum sqs:      37.514488  Gnorm:    732.062219  CPU:   20.649
  Cycle:    172  Sum sqs:      37.503177  Gnorm:    816.060428  CPU:   20.763
  Cycle:    173  Sum sqs:      37.495344  Gnorm:    333.025345  CPU:   20.883
  Cycle:    174  Sum sqs:      37.483413  Gnorm:    515.328091  CPU:   20.998
  Cycle:    175  Sum sqs:      37.436365  Gnorm:    758.298754  CPU:   21.116
  Cycle:    176  Sum sqs:      37.417331  Gnorm:    254.100700  CPU:   21.231
  Cycle:    177  Sum sqs:      37.403242  Gnorm:    349.701165  CPU:   21.347
  Cycle:    178  Sum sqs:      37.395437  Gnorm:    803.277253  CPU:   21.459
  Cycle:    179  Sum sqs:      37.383051  Gnorm:    255.016955  CPU:   21.573
  Cycle:    180  Sum sqs:      37.346298  Gnorm:    377.267441  CPU:   21.695
  ** Hessian calculated **
  Cycle:    181  Sum sqs:      37.343940  Gnorm:    199.443813  CPU:   21.913
  Cycle:    182  Sum sqs:      37.340965  Gnorm:    186.032122  CPU:   22.027
  Cycle:    183  Sum sqs:      37.338578  Gnorm:    158.225967  CPU:   22.139
  Cycle:    184  Sum sqs:      37.334906  Gnorm:    189.158708  CPU:   22.253
  Cycle:    185  Sum sqs:      37.332530  Gnorm:     41.829168  CPU:   22.367
  Cycle:    186  Sum sqs:      37.332335  Gnorm:     62.933369  CPU:   22.481
  Cycle:    187  Sum sqs:      37.331550  Gnorm:     11.931464  CPU:   22.595
  Cycle:    188  Sum sqs:      37.331383  Gnorm:     84.056325  CPU:   22.707
  Cycle:    189  Sum sqs:      37.330531  Gnorm:    104.446614  CPU:   22.820
  Cycle:    190  Sum sqs:      37.329994  Gnorm:     43.676299  CPU:   22.932
  Cycle:    191  Sum sqs:      37.320232  Gnorm:    465.908726  CPU:   23.046
  Cycle:    192  Sum sqs:      37.308943  Gnorm:    556.892776  CPU:   23.160
  Cycle:    193  Sum sqs:      37.302081  Gnorm:    216.004063  CPU:   23.274
  Cycle:    194  Sum sqs:      37.293252  Gnorm:    295.044435  CPU:   23.391
  Cycle:    195  Sum sqs:      37.284320  Gnorm:    520.156954  CPU:   23.508
  Cycle:    196  Sum sqs:      37.257398  Gnorm:    881.766017  CPU:   23.622
  Cycle:    197  Sum sqs:      37.236816  Gnorm:    657.695767  CPU:   23.736
  Cycle:    198  Sum sqs:      37.225171  Gnorm:    577.779721  CPU:   23.858
  Cycle:    199  Sum sqs:      37.216168  Gnorm:    529.697840  CPU:   23.974
  Cycle:    200  Sum sqs:      37.194201  Gnorm:    477.973728  CPU:   24.096
  ** Hessian calculated **
  Cycle:    201  Sum sqs:      37.188258  Gnorm:    366.839723  CPU:   24.311
  Cycle:    202  Sum sqs:      37.186237  Gnorm:    102.447836  CPU:   24.423
  Cycle:    203  Sum sqs:      37.180986  Gnorm:    149.452581  CPU:   24.537
  Cycle:    204  Sum sqs:      37.175706  Gnorm:    294.037488  CPU:   24.651
  Cycle:    205  Sum sqs:      37.171454  Gnorm:     30.909460  CPU:   24.765
  Cycle:    206  Sum sqs:      37.171372  Gnorm:     34.123582  CPU:   24.879
  Cycle:    207  Sum sqs:      37.170798  Gnorm:     11.901058  CPU:   24.994
  Cycle:    208  Sum sqs:      37.170555  Gnorm:     96.220458  CPU:   25.108
  Cycle:    209  Sum sqs:      37.166600  Gnorm:    331.585922  CPU:   25.222
  Cycle:    210  Sum sqs:      37.159344  Gnorm:    263.232077  CPU:   25.336
  Cycle:    211  Sum sqs:      37.152484  Gnorm:    217.663502  CPU:   25.447
  Cycle:    212  Sum sqs:      37.099464  Gnorm:    305.044368  CPU:   25.569
  Cycle:    213  Sum sqs:      37.068833  Gnorm:    540.550883  CPU:   25.680
  Cycle:    214  Sum sqs:      37.062452  Gnorm:    273.920871  CPU:   25.794
  Cycle:    215  Sum sqs:      37.049854  Gnorm:    507.112402  CPU:   25.911
  Cycle:    216  Sum sqs:      37.039442  Gnorm:   1585.157683  CPU:   26.022
  Cycle:    217  Sum sqs:      37.010610  Gnorm:    639.500683  CPU:   26.136
  Cycle:    218  Sum sqs:      36.959518  Gnorm:    463.761164  CPU:   26.253
  Cycle:    219  Sum sqs:      36.949282  Gnorm:    779.179043  CPU:   26.365
  Cycle:    220  Sum sqs:      36.931742  Gnorm:    296.177818  CPU:   26.479
  ** Hessian calculated **
  Cycle:    221  Sum sqs:      36.928961  Gnorm:    404.895412  CPU:   26.696
  Cycle:    222  Sum sqs:      36.925917  Gnorm:    195.221724  CPU:   26.810
  Cycle:    223  Sum sqs:      36.922528  Gnorm:    178.198295  CPU:   26.925
  Cycle:    224  Sum sqs:      36.919474  Gnorm:    189.611452  CPU:   27.036
  Cycle:    225  Sum sqs:      36.914852  Gnorm:     40.292856  CPU:   27.158
  Cycle:    226  Sum sqs:      36.914654  Gnorm:     56.988428  CPU:   27.273
  Cycle:    227  Sum sqs:      36.913546  Gnorm:     11.407238  CPU:   27.389
  Cycle:    228  Sum sqs:      36.913391  Gnorm:     81.776353  CPU:   27.501
  Cycle:    229  Sum sqs:      36.912773  Gnorm:    128.691430  CPU:   27.615
  Cycle:    230  Sum sqs:      36.911877  Gnorm:     44.125221  CPU:   27.729
  Cycle:    231  Sum sqs:      36.910988  Gnorm:    172.951118  CPU:   27.843
  Cycle:    232  Sum sqs:      36.889113  Gnorm:    337.160875  CPU:   27.960
  Cycle:    233  Sum sqs:      36.882007  Gnorm:    677.491186  CPU:   28.071
  Cycle:    234  Sum sqs:      36.872400  Gnorm:    169.165071  CPU:   28.186
  Cycle:    235  Sum sqs:      36.864299  Gnorm:    154.891829  CPU:   28.307
  Cycle:    236  Sum sqs:      36.854958  Gnorm:    237.888884  CPU:   28.424
  Cycle:    237  Sum sqs:      36.843819  Gnorm:    560.363622  CPU:   28.540
  Cycle:    238  Sum sqs:      36.821837  Gnorm:    741.609756  CPU:   28.654
  Cycle:    239  Sum sqs:      36.786861  Gnorm:    728.656678  CPU:   28.769
  Cycle:    240  Sum sqs:      36.771422  Gnorm:    567.324018  CPU:   28.888
  ** Hessian calculated **
  Cycle:    241  Sum sqs:      36.767301  Gnorm:    279.295104  CPU:   29.106
  Cycle:    242  Sum sqs:      36.764749  Gnorm:    134.577664  CPU:   29.220
  Cycle:    243  Sum sqs:      36.761944  Gnorm:    153.312839  CPU:   29.334
  Cycle:    244  Sum sqs:      36.752181  Gnorm:    274.753202  CPU:   29.447
  Cycle:    245  Sum sqs:      36.750054  Gnorm:     36.960283  CPU:   29.562
  Cycle:    246  Sum sqs:      36.748804  Gnorm:     81.717229  CPU:   29.676
  Cycle:    247  Sum sqs:      36.748510  Gnorm:      8.083986  CPU:   29.790
  Cycle:    248  Sum sqs:      36.748072  Gnorm:    137.997045  CPU:   29.904
  Cycle:    249  Sum sqs:      36.747445  Gnorm:    130.985387  CPU:   30.018
  Cycle:    250  Sum sqs:      36.746817  Gnorm:     89.844998  CPU:   30.132
  Cycle:    251  Sum sqs:      36.741426  Gnorm:    366.162576  CPU:   30.246
  Cycle:    252  Sum sqs:      36.726230  Gnorm:    504.119043  CPU:   30.363
  Cycle:    253  Sum sqs:      36.718254  Gnorm:    199.219645  CPU:   30.474
  Cycle:    254  Sum sqs:      36.711471  Gnorm:    285.802980  CPU:   30.590
  Cycle:    255  Sum sqs:      36.695945  Gnorm:    511.615698  CPU:   30.706
  Cycle:    256  Sum sqs:      36.676524  Gnorm:    720.740674  CPU:   30.823
  Cycle:    257  Sum sqs:      36.635937  Gnorm:    864.444021  CPU:   30.944
  Cycle:    258  Sum sqs:      36.600198  Gnorm:   1406.583526  CPU:   31.056
  Cycle:    259  Sum sqs:      36.581356  Gnorm:    703.710810  CPU:   31.170
  Cycle:    260  Sum sqs:      36.554614  Gnorm:    329.678560  CPU:   31.284
  ** Hessian calculated **
  Cycle:    261  Sum sqs:      36.552574  Gnorm:    234.695242  CPU:   31.502
  Cycle:    262  Sum sqs:      36.549205  Gnorm:    183.273384  CPU:   31.617
  Cycle:    263  Sum sqs:      36.545865  Gnorm:    177.436278  CPU:   31.729
  Cycle:    264  Sum sqs:      36.540335  Gnorm:    293.622507  CPU:   31.843
  Cycle:    265  Sum sqs:      36.535286  Gnorm:     25.170745  CPU:   31.957
  Cycle:    266  Sum sqs:      36.534592  Gnorm:     79.219948  CPU:   32.068
  Cycle:    267  Sum sqs:      36.534266  Gnorm:     21.693977  CPU:   32.180
  Cycle:    268  Sum sqs:      36.533841  Gnorm:     99.966911  CPU:   32.294
  Cycle:    269  Sum sqs:      36.533370  Gnorm:     86.312899  CPU:   32.408
  Cycle:    270  Sum sqs:      36.532983  Gnorm:     27.464781  CPU:   32.519
  Cycle:    271  Sum sqs:      36.531769  Gnorm:    173.980251  CPU:   32.637
  Cycle:    272  Sum sqs:      36.524779  Gnorm:    125.702214  CPU:   32.752
  Cycle:    273  Sum sqs:      36.521957  Gnorm:    272.663680  CPU:   32.866
  Cycle:    274  Sum sqs:      36.505128  Gnorm:    133.912466  CPU:   32.990
  Cycle:    275  Sum sqs:      36.491323  Gnorm:    428.766354  CPU:   33.106
  Cycle:    276  Sum sqs:      36.481387  Gnorm:   1065.110710  CPU:   33.218
  Cycle:    277  Sum sqs:      36.463253  Gnorm:    462.484533  CPU:   33.339
  Cycle:    278  Sum sqs:      36.443341  Gnorm:    723.985377  CPU:   33.453
  Cycle:    279  Sum sqs:      36.345330  Gnorm:   1004.821081  CPU:   33.572
  Cycle:    280  Sum sqs:      36.332514  Gnorm:    210.186187  CPU:   33.686
  ** Hessian calculated **
  Cycle:    281  Sum sqs:      36.331821  Gnorm:    174.137653  CPU:   33.904
  Cycle:    282  Sum sqs:      36.324718  Gnorm:    425.495127  CPU:   34.019
  Cycle:    283  Sum sqs:      36.316253  Gnorm:    173.778877  CPU:   34.133
  Cycle:    284  Sum sqs:      36.314791  Gnorm:     68.896686  CPU:   34.244
  Cycle:    285  Sum sqs:      36.314097  Gnorm:     37.170767  CPU:   34.359
  Cycle:    286  Sum sqs:      36.312068  Gnorm:     92.160615  CPU:   34.473
  Cycle:    287  Sum sqs:      36.311663  Gnorm:     19.165890  CPU:   34.587
  Cycle:    288  Sum sqs:      36.310986  Gnorm:     91.744953  CPU:   34.701
  Cycle:    289  Sum sqs:      36.310725  Gnorm:     18.576381  CPU:   34.812
  Cycle:    290  Sum sqs:      36.310345  Gnorm:     86.556028  CPU:   34.926
  Cycle:    291  Sum sqs:      36.306735  Gnorm:    116.140764  CPU:   35.041
  Cycle:    292  Sum sqs:      36.306072  Gnorm:     66.018190  CPU:   35.155
  Cycle:    293  Sum sqs:      36.233947  Gnorm:    510.694205  CPU:   35.271
  Cycle:    294  Sum sqs:      36.224693  Gnorm:    982.877103  CPU:   35.385
  Cycle:    295  Sum sqs:      36.197631  Gnorm:    603.604405  CPU:   35.499
  Cycle:    296  Sum sqs:      36.160398  Gnorm:   1001.636469  CPU:   35.616
  Cycle:    297  Sum sqs:      36.119263  Gnorm:    120.510609  CPU:   35.727
  Cycle:    298  Sum sqs:      36.099386  Gnorm:    624.731808  CPU:   35.844
  Cycle:    299  Sum sqs:      36.082454  Gnorm:   1676.820888  CPU:   35.955
  Cycle:    300  Sum sqs:      36.046254  Gnorm:    508.033772  CPU:   36.070
  ** Hessian calculated **
  Cycle:    301  Sum sqs:      36.042859  Gnorm:    115.284826  CPU:   36.288
  Cycle:    302  Sum sqs:      36.041667  Gnorm:    131.944674  CPU:   36.402
  Cycle:    303  Sum sqs:      36.040267  Gnorm:    136.959112  CPU:   36.513
  Cycle:    304  Sum sqs:      36.037768  Gnorm:    199.715295  CPU:   36.627
  Cycle:    305  Sum sqs:      36.033659  Gnorm:     35.764445  CPU:   36.741
  Cycle:    306  Sum sqs:      36.033556  Gnorm:     30.342621  CPU:   36.855
  Cycle:    307  Sum sqs:      36.032243  Gnorm:     21.252751  CPU:   36.969
  Cycle:    308  Sum sqs:      36.031497  Gnorm:    152.751624  CPU:   37.081
  Cycle:    309  Sum sqs:      36.030052  Gnorm:    224.577727  CPU:   37.195
  Cycle:    310  Sum sqs:      36.026720  Gnorm:     94.060879  CPU:   37.309
  Cycle:    311  Sum sqs:      36.005640  Gnorm:    736.092177  CPU:   37.423
  Cycle:    312  Sum sqs:      35.979224  Gnorm:    628.523755  CPU:   37.539
  Cycle:    313  Sum sqs:      35.960721  Gnorm:    906.021534  CPU:   37.656
  Cycle:    314  Sum sqs:      35.938555  Gnorm:    847.762900  CPU:   37.767
  Cycle:    315  Sum sqs:      35.913703  Gnorm:    493.520441  CPU:   37.881
  Cycle:    316  Sum sqs:      35.879931  Gnorm:    303.222807  CPU:   38.008
  Cycle:    317  Sum sqs:      35.851899  Gnorm:    490.421361  CPU:   38.124
  Cycle:    318  Sum sqs:      35.836185  Gnorm:    976.183610  CPU:   38.236
  Cycle:    319  Sum sqs:      35.823753  Gnorm:    464.280356  CPU:   38.350
  Cycle:    320  Sum sqs:      35.806782  Gnorm:    579.127371  CPU:   38.464
  ** Hessian calculated **
  Cycle:    321  Sum sqs:      35.800752  Gnorm:    323.426264  CPU:   38.682
  Cycle:    322  Sum sqs:      35.796218  Gnorm:    208.968738  CPU:   38.796
  Cycle:    323  Sum sqs:      35.788452  Gnorm:    113.189531  CPU:   38.910
  Cycle:    324  Sum sqs:      35.781204  Gnorm:    133.784617  CPU:   39.025
  Cycle:    325  Sum sqs:      35.780761  Gnorm:     42.374888  CPU:   39.138
  Cycle:    326  Sum sqs:      35.778710  Gnorm:     36.405027  CPU:   39.253
  Cycle:    327  Sum sqs:      35.778572  Gnorm:     43.450570  CPU:   39.367
  Cycle:    328  Sum sqs:      35.777012  Gnorm:    175.521540  CPU:   39.481
  Cycle:    329  Sum sqs:      35.776171  Gnorm:     92.475755  CPU:   39.600
  Cycle:    330  Sum sqs:      35.775837  Gnorm:     71.186672  CPU:   39.713
  Cycle:    331  Sum sqs:      35.761033  Gnorm:    416.371632  CPU:   39.833
  Cycle:    332  Sum sqs:      35.751136  Gnorm:    346.662065  CPU:   39.951
  Cycle:    333  Sum sqs:      35.746967  Gnorm:    255.190612  CPU:   40.073
  Cycle:    334  Sum sqs:      35.733823  Gnorm:    240.814178  CPU:   40.205
  Cycle:    335  Sum sqs:      35.722385  Gnorm:    177.941239  CPU:   40.331
  Cycle:    336  Sum sqs:      35.707381  Gnorm:    360.431317  CPU:   40.458
  Cycle:    337  Sum sqs:      35.689861  Gnorm:    843.337200  CPU:   40.588
  Cycle:    338  Sum sqs:      35.623635  Gnorm:   1088.002608  CPU:   40.711
  Cycle:    339  Sum sqs:      35.553891  Gnorm:    105.411432  CPU:   40.836
  Cycle:    340  Sum sqs:      35.542009  Gnorm:    694.331397  CPU:   40.962
  ** Hessian calculated **
  Cycle:    341  Sum sqs:      35.535335  Gnorm:    164.502345  CPU:   41.198
  Cycle:    342  Sum sqs:      35.532587  Gnorm:    140.053721  CPU:   41.325
  Cycle:    343  Sum sqs:      35.531281  Gnorm:     80.720486  CPU:   41.446
  Cycle:    344  Sum sqs:      35.524444  Gnorm:    103.467085  CPU:   41.572
  Cycle:    345  Sum sqs:      35.524167  Gnorm:     34.137096  CPU:   41.698
  Cycle:    346  Sum sqs:      35.522934  Gnorm:    123.618537  CPU:   41.822
  Cycle:    347  Sum sqs:      35.521739  Gnorm:     22.898197  CPU:   41.946
  Cycle:    348  Sum sqs:      35.520329  Gnorm:    323.963158  CPU:   42.072
  Cycle:    349  Sum sqs:      35.513480  Gnorm:    255.293691  CPU:   42.196
  Cycle:    350  Sum sqs:      35.511600  Gnorm:    120.164829  CPU:   42.319
  Cycle:    351  Sum sqs:      35.483948  Gnorm:    753.939822  CPU:   42.446
  Cycle:    352  Sum sqs:      35.452505  Gnorm:    833.332580  CPU:   42.573
  Cycle:    353  Sum sqs:      35.421494  Gnorm:   1305.044303  CPU:   42.698
  Cycle:    354  Sum sqs:      35.376954  Gnorm:    782.055879  CPU:   42.825
  Cycle:    355  Sum sqs:      35.356385  Gnorm:   1025.895361  CPU:   42.949
  Cycle:    356  Sum sqs:      35.318367  Gnorm:    752.439107  CPU:   43.070
  Cycle:    357  Sum sqs:      35.296851  Gnorm:    694.903454  CPU:   43.202
  Cycle:    358  Sum sqs:      35.259143  Gnorm:    671.763932  CPU:   43.332
  Cycle:    359  Sum sqs:      35.212961  Gnorm:   1181.706988  CPU:   43.458
  Cycle:    360  Sum sqs:      35.172637  Gnorm:    978.349848  CPU:   43.583
  ** Hessian calculated **
  Cycle:    361  Sum sqs:      35.161168  Gnorm:    342.651332  CPU:   43.821
  Cycle:    362  Sum sqs:      35.158931  Gnorm:    127.160553  CPU:   43.943
  Cycle:    363  Sum sqs:      35.156861  Gnorm:    100.363780  CPU:   44.070
  Cycle:    364  Sum sqs:      35.153682  Gnorm:    160.045068  CPU:   44.194
  Cycle:    365  Sum sqs:      35.149067  Gnorm:     59.803579  CPU:   44.318
  Cycle:    366  Sum sqs:      35.148613  Gnorm:     82.395489  CPU:   44.443
  Cycle:    367  Sum sqs:      35.145338  Gnorm:     60.045125  CPU:   44.569
  Cycle:    368  Sum sqs:      35.145217  Gnorm:     33.863287  CPU:   44.692
  Cycle:    369  Sum sqs:      35.141859  Gnorm:    186.586730  CPU:   44.817
  Cycle:    370  Sum sqs:      35.140072  Gnorm:     93.551762  CPU:   44.940
  Cycle:    371  Sum sqs:      35.092609  Gnorm:    927.130355  CPU:   45.063
  Cycle:    372  Sum sqs:      35.063882  Gnorm:   1123.571157  CPU:   45.185
  Cycle:    373  Sum sqs:      35.028564  Gnorm:    456.613949  CPU:   45.311
  Cycle:    374  Sum sqs:      35.002902  Gnorm:    626.271947  CPU:   45.437
  Cycle:    375  Sum sqs:      34.967502  Gnorm:   1027.890799  CPU:   45.564
  Cycle:    376  Sum sqs:      34.895088  Gnorm:   1471.543149  CPU:   45.690
  Cycle:    377  Sum sqs:      34.839410  Gnorm:    830.413802  CPU:   45.814
  Cycle:    378  Sum sqs:      34.833124  Gnorm:    812.512780  CPU:   45.940
  Cycle:    379  Sum sqs:      34.760244  Gnorm:    650.202361  CPU:   46.080
  Cycle:    380  Sum sqs:      34.699782  Gnorm:   1202.826225  CPU:   46.209
  ** Hessian calculated **
  Cycle:    381  Sum sqs:      34.676394  Gnorm:    487.344253  CPU:   46.455
  Cycle:    382  Sum sqs:      34.664953  Gnorm:    212.304473  CPU:   46.578
  Cycle:    383  Sum sqs:      34.660909  Gnorm:    120.969662  CPU:   46.699
  Cycle:    384  Sum sqs:      34.645594  Gnorm:    279.336914  CPU:   46.826
  Cycle:    385  Sum sqs:      34.643613  Gnorm:     24.340431  CPU:   46.950
  Cycle:    386  Sum sqs:      34.639478  Gnorm:    202.025636  CPU:   47.073
  Cycle:    387  Sum sqs:      34.638423  Gnorm:     62.371512  CPU:   47.199
  Cycle:    388  Sum sqs:      34.637661  Gnorm:    192.638538  CPU:   47.321
  Cycle:    389  Sum sqs:      34.628967  Gnorm:    386.728616  CPU:   47.444
  Cycle:    390  Sum sqs:      34.622253  Gnorm:    136.568788  CPU:   47.567
  Cycle:    391  Sum sqs:      34.614123  Gnorm:    441.425499  CPU:   47.692
  Cycle:    392  Sum sqs:      34.557759  Gnorm:    270.307255  CPU:   47.818
  Cycle:    393  Sum sqs:      34.523895  Gnorm:    662.008453  CPU:   47.945
  Cycle:    394  Sum sqs:      34.487865  Gnorm:    713.667124  CPU:   48.069
  Cycle:    395  Sum sqs:      34.394228  Gnorm:    923.240655  CPU:   48.192
  Cycle:    396  Sum sqs:      34.371209  Gnorm:   1732.336886  CPU:   48.313
  Cycle:    397  Sum sqs:      34.254148  Gnorm:   2204.281169  CPU:   48.442
  Cycle:    398  Sum sqs:      34.076135  Gnorm:    616.193419  CPU:   48.563
  Cycle:    399  Sum sqs:      34.039673  Gnorm:   1700.684599  CPU:   48.684
  Cycle:    400  Sum sqs:      33.955584  Gnorm:    651.880275  CPU:   48.810
  ** Hessian calculated **
  Cycle:    401  Sum sqs:      33.950869  Gnorm:    209.039539  CPU:   49.046
  Cycle:    402  Sum sqs:      33.947618  Gnorm:    195.158513  CPU:   49.173
  Cycle:    403  Sum sqs:      33.936703  Gnorm:    433.344904  CPU:   49.299
  Cycle:    404  Sum sqs:      33.926181  Gnorm:    162.335531  CPU:   49.422
  Cycle:    405  Sum sqs:      33.923097  Gnorm:     97.077168  CPU:   49.543
  Cycle:    406  Sum sqs:      33.922167  Gnorm:    112.104302  CPU:   49.667
  Cycle:    407  Sum sqs:      33.916043  Gnorm:     44.904200  CPU:   49.790
  Cycle:    408  Sum sqs:      33.906763  Gnorm:    131.739957  CPU:   49.914
  Cycle:    409  Sum sqs:      33.904696  Gnorm:    167.013712  CPU:   50.040
  Cycle:    410  Sum sqs:      33.895386  Gnorm:    561.143712  CPU:   50.164
  Cycle:    411  Sum sqs:      33.824249  Gnorm:    727.957150  CPU:   50.296
  Cycle:    412  Sum sqs:      33.777900  Gnorm:   1249.342890  CPU:   50.425
  Cycle:    413  Sum sqs:      33.711766  Gnorm:   1622.080752  CPU:   50.551
  Cycle:    414  Sum sqs:      33.674496  Gnorm:    504.654180  CPU:   50.675
  Cycle:    415  Sum sqs:      33.622254  Gnorm:    514.992911  CPU:   50.807
  Cycle:    416  Sum sqs:      33.569903  Gnorm:    758.410211  CPU:   50.939
  Cycle:    417  Sum sqs:      33.504669  Gnorm:   1382.305441  CPU:   51.066
  Cycle:    418  Sum sqs:      33.431506  Gnorm:   1999.903919  CPU:   51.192
  Cycle:    419  Sum sqs:      33.322731  Gnorm:    933.025506  CPU:   51.315
  Cycle:    420  Sum sqs:      33.227022  Gnorm:    942.104518  CPU:   51.445
  ** Hessian calculated **
  Cycle:    421  Sum sqs:      33.204448  Gnorm:    813.795011  CPU:   51.682
  Cycle:    422  Sum sqs:      33.189728  Gnorm:    225.565689  CPU:   51.805
  Cycle:    423  Sum sqs:      33.176289  Gnorm:    422.069759  CPU:   51.929
  Cycle:    424  Sum sqs:      33.160813  Gnorm:    465.850479  CPU:   52.052
  Cycle:    425  Sum sqs:      33.116254  Gnorm:     72.556248  CPU:   52.179
  Cycle:    426  Sum sqs:      33.114691  Gnorm:    170.508251  CPU:   52.303
  Cycle:    427  Sum sqs:      33.103747  Gnorm:    107.169482  CPU:   52.426
  Cycle:    428  Sum sqs:      33.101711  Gnorm:    254.530132  CPU:   52.551
  Cycle:    429  Sum sqs:      33.097745  Gnorm:    470.409285  CPU:   52.676
  Cycle:    430  Sum sqs:      33.079066  Gnorm:    182.049009  CPU:   52.800
  Cycle:    431  Sum sqs:      33.068872  Gnorm:    475.185028  CPU:   52.922
  Cycle:    432  Sum sqs:      32.949797  Gnorm:    476.614225  CPU:   53.056
  Cycle:    433  Sum sqs:      32.902160  Gnorm:   1287.625870  CPU:   53.182
  Cycle:    434  Sum sqs:      32.859577  Gnorm:    543.324133  CPU:   53.306
  Cycle:    435  Sum sqs:      32.762646  Gnorm:    653.663982  CPU:   53.432
  Cycle:    436  Sum sqs:      32.665024  Gnorm:   1589.439265  CPU:   53.561
  Cycle:    437  Sum sqs:      32.482806  Gnorm:   2815.956053  CPU:   53.685
  Cycle:    438  Sum sqs:      32.366646  Gnorm:   1517.055388  CPU:   53.808
  Cycle:    439  Sum sqs:      32.090040  Gnorm:   1565.505969  CPU:   53.936
  Cycle:    440  Sum sqs:      32.008399  Gnorm:   1669.557618  CPU:   54.059
  ** Hessian calculated **
  Cycle:    441  Sum sqs:      31.969218  Gnorm:    486.148908  CPU:   54.295
  Cycle:    442  Sum sqs:      31.945937  Gnorm:    403.864520  CPU:   54.422
  Cycle:    443  Sum sqs:      31.927034  Gnorm:    343.281688  CPU:   54.545
  Cycle:    444  Sum sqs:      31.900041  Gnorm:    596.356286  CPU:   54.668
  Cycle:    445  Sum sqs:      31.876425  Gnorm:     92.582943  CPU:   54.795
  Cycle:    446  Sum sqs:      31.863546  Gnorm:    346.890212  CPU:   54.919
  Cycle:    447  Sum sqs:      31.855425  Gnorm:     70.381646  CPU:   55.039
  Cycle:    448  Sum sqs:      31.849820  Gnorm:    524.203638  CPU:   55.165
  Cycle:    449  Sum sqs:      31.839342  Gnorm:    776.244651  CPU:   55.290
  Cycle:    450  Sum sqs:      31.814723  Gnorm:    252.413536  CPU:   55.413
  Cycle:    451  Sum sqs:      31.771448  Gnorm:   1125.523211  CPU:   55.538
  Cycle:    452  Sum sqs:      31.649056  Gnorm:   1221.269723  CPU:   55.666
  Cycle:    453  Sum sqs:      31.544780  Gnorm:   1217.364594  CPU:   55.787
  Cycle:    454  Sum sqs:      31.506518  Gnorm:    627.230500  CPU:   55.911
  Cycle:    455  Sum sqs:      31.389244  Gnorm:    719.534233  CPU:   56.040
  Cycle:    456  Sum sqs:      31.297352  Gnorm:   1499.800104  CPU:   56.166
  Cycle:    457  Sum sqs:      31.190244  Gnorm:   1724.102056  CPU:   56.288
  Cycle:    458  Sum sqs:      30.684126  Gnorm:   3239.520782  CPU:   56.415
  Cycle:    459  Sum sqs:      30.544685  Gnorm:   1468.187238  CPU:   56.539
  Cycle:    460  Sum sqs:      30.249353  Gnorm:   1819.292470  CPU:   56.662
  ** Hessian calculated **
  Cycle:    461  Sum sqs:      30.203720  Gnorm:    599.240557  CPU:   56.902
  Cycle:    462  Sum sqs:      30.176647  Gnorm:    366.331918  CPU:   57.025
  Cycle:    463  Sum sqs:      30.155561  Gnorm:    443.340379  CPU:   57.149
  Cycle:    464  Sum sqs:      30.111077  Gnorm:    887.231486  CPU:   57.275
  Cycle:    465  Sum sqs:      30.085547  Gnorm:    116.803263  CPU:   57.396
  Cycle:    466  Sum sqs:      30.052008  Gnorm:    456.291763  CPU:   57.519
  Cycle:    467  Sum sqs:      30.046418  Gnorm:    164.661542  CPU:   57.646
  Cycle:    468  Sum sqs:      30.033137  Gnorm:    714.741689  CPU:   57.770
  Cycle:    469  Sum sqs:      30.007223  Gnorm:   1056.474434  CPU:   57.893
  Cycle:    470  Sum sqs:      29.949893  Gnorm:    380.613249  CPU:   58.019
  Cycle:    471  Sum sqs:      29.905722  Gnorm:   1089.947995  CPU:   58.144
  Cycle:    472  Sum sqs:      29.748218  Gnorm:    753.788911  CPU:   58.272
  Cycle:    473  Sum sqs:      29.601081  Gnorm:   1249.184699  CPU:   58.400
  Cycle:    474  Sum sqs:      29.477591  Gnorm:   4231.977264  CPU:   58.523
  Cycle:    475  Sum sqs:      29.225070  Gnorm:   2174.066931  CPU:   58.646
  Cycle:    476  Sum sqs:      28.933394  Gnorm:    909.939611  CPU:   58.767
  Cycle:    477  Sum sqs:      28.746878  Gnorm:   2006.895903  CPU:   58.896
  Cycle:    478  Sum sqs:      28.616121  Gnorm:   2291.430710  CPU:   59.017
  Cycle:    479  Sum sqs:      28.076785  Gnorm:   3666.354972  CPU:   59.143
  Cycle:    480  Sum sqs:      27.498413  Gnorm:   1823.736510  CPU:   59.267
  ** Hessian calculated **
  Cycle:    481  Sum sqs:      27.404338  Gnorm:   1367.323154  CPU:   59.500
  Cycle:    482  Sum sqs:      27.378286  Gnorm:    324.754382  CPU:   59.623
  Cycle:    483  Sum sqs:      27.357255  Gnorm:    724.756957  CPU:   59.748
  Cycle:    484  Sum sqs:      27.307730  Gnorm:    315.242564  CPU:   59.879
  Cycle:    485  Sum sqs:      27.273929  Gnorm:    129.437161  CPU:   60.007
  Cycle:    486  Sum sqs:      27.270325  Gnorm:    209.426017  CPU:   60.130
  Cycle:    487  Sum sqs:      27.169792  Gnorm:    344.210512  CPU:   60.254
  Cycle:    488  Sum sqs:      27.154115  Gnorm:    702.572103  CPU:   60.381
  Cycle:    489  Sum sqs:      26.616796  Gnorm:   2272.403140  CPU:   60.513
  Cycle:    490  Sum sqs:      26.497814  Gnorm:   3473.575823  CPU:   60.639
  Cycle:    491  Sum sqs:      26.281161  Gnorm:   1474.109846  CPU:   60.763
  Cycle:    492  Sum sqs:      26.158989  Gnorm:    989.123692  CPU:   60.887
  Cycle:    493  Sum sqs:      24.818214  Gnorm:   3306.449576  CPU:   61.019
  Cycle:    494  Sum sqs:      24.376731  Gnorm:   2784.592901  CPU:   61.143
  Cycle:    495  Sum sqs:      24.142348  Gnorm:   2428.975101  CPU:   61.271
  Cycle:    496  Sum sqs:      23.736296  Gnorm:   2160.226590  CPU:   61.406
  Cycle:    497  Sum sqs:      23.143276  Gnorm:   3626.251220  CPU:   61.533
  Cycle:    498  Sum sqs:      22.777964  Gnorm:   3562.680477  CPU:   61.654
  Cycle:    499  Sum sqs:      22.457286  Gnorm:   2468.114707  CPU:   61.779
  Cycle:    500  Sum sqs:      22.366902  Gnorm:    872.373539  CPU:   61.904
  ** Hessian calculated **
  Cycle:    501  Sum sqs:      22.311874  Gnorm:    725.060729  CPU:   62.140
  Cycle:    502  Sum sqs:      22.055807  Gnorm:   2132.552129  CPU:   62.267
  Cycle:    503  Sum sqs:      21.958000  Gnorm:    905.356140  CPU:   62.388
  Cycle:    504  Sum sqs:      21.865815  Gnorm:    632.169711  CPU:   62.508
  Cycle:    505  Sum sqs:      21.853126  Gnorm:    278.849716  CPU:   62.634
  Cycle:    506  Sum sqs:      21.698432  Gnorm:    285.144802  CPU:   62.759
  Cycle:    507  Sum sqs:      21.677554  Gnorm:    626.845921  CPU:   62.882
  Cycle:    508  Sum sqs:      21.379054  Gnorm:   1101.588456  CPU:   63.007
  Cycle:    509  Sum sqs:      21.239063  Gnorm:   1074.389075  CPU:   63.131
  Cycle:    510  Sum sqs:      21.154103  Gnorm:    899.845191  CPU:   63.252
  Cycle:    511  Sum sqs:      20.932232  Gnorm:   2097.858683  CPU:   63.376
  Cycle:    512  Sum sqs:      20.730975  Gnorm:   1822.410780  CPU:   63.508
  Cycle:    513  Sum sqs:      20.415622  Gnorm:   1510.011668  CPU:   63.637
  Cycle:    514  Sum sqs:      19.825961  Gnorm:   2513.552731  CPU:   63.763
  Cycle:    515  Sum sqs:      19.226110  Gnorm:   5095.634659  CPU:   63.890
  Cycle:    516  Sum sqs:      19.102035  Gnorm:   3065.853804  CPU:   64.014
  Cycle:    517  Sum sqs:      18.149424  Gnorm:   4499.819196  CPU:   64.140
  Cycle:    518  Sum sqs:      17.330359  Gnorm:   9594.574609  CPU:   64.263
  Cycle:    519  Sum sqs:      15.740042  Gnorm:   1249.897476  CPU:   64.388
  Cycle:    520  Sum sqs:      14.700052  Gnorm:   4130.883684  CPU:   64.513
  ** Hessian calculated **
  Cycle:    521  Sum sqs:      14.481070  Gnorm:   1152.596349  CPU:   64.751
  Cycle:    522  Sum sqs:      14.396347  Gnorm:    753.984921  CPU:   64.874
  Cycle:    523  Sum sqs:      14.339181  Gnorm:    966.096211  CPU:   65.001
  Cycle:    524  Sum sqs:      14.237481  Gnorm:   1211.896341  CPU:   65.125
  Cycle:    525  Sum sqs:      14.054578  Gnorm:    568.461657  CPU:   65.248
  Cycle:    526  Sum sqs:      14.039380  Gnorm:    277.848908  CPU:   65.374
  Cycle:    527  Sum sqs:      13.826708  Gnorm:    804.523272  CPU:   65.499
  Cycle:    528  Sum sqs:      13.792631  Gnorm:    951.024344  CPU:   65.622
  Cycle:    529  Sum sqs:      13.618734  Gnorm:   3443.694684  CPU:   65.747
  Cycle:    530  Sum sqs:      12.724823  Gnorm:   5027.732956  CPU:   65.873
  Cycle:    531  Sum sqs:      12.371477  Gnorm:    703.759366  CPU:   65.996
  Cycle:    532  Sum sqs:      11.935094  Gnorm:   1116.714004  CPU:   66.123
  Cycle:    533  Sum sqs:      11.626064  Gnorm:   3006.312253  CPU:   66.252
  Cycle:    534  Sum sqs:      11.112494  Gnorm:   2705.760874  CPU:   66.376
  Cycle:    535  Sum sqs:      10.540059  Gnorm:   2715.793607  CPU:   66.496
  Cycle:    536  Sum sqs:      10.122624  Gnorm:   1036.747369  CPU:   66.629
  Cycle:    537  Sum sqs:       9.877056  Gnorm:   2124.185325  CPU:   66.761
  Cycle:    538  Sum sqs:       9.615441  Gnorm:   3078.950938  CPU:   66.886
  Cycle:    539  Sum sqs:       9.287121  Gnorm:   1797.362550  CPU:   67.009
  Cycle:    540  Sum sqs:       9.159549  Gnorm:    918.811448  CPU:   67.134
  ** Hessian calculated **
  Cycle:    541  Sum sqs:       9.143003  Gnorm:   1002.968599  CPU:   67.372
  Cycle:    542  Sum sqs:       9.107188  Gnorm:    594.713945  CPU:   67.496
  Cycle:    543  Sum sqs:       8.979149  Gnorm:    687.236575  CPU:   67.623
  Cycle:    544  Sum sqs:       8.950092  Gnorm:    534.272421  CPU:   67.746
  Cycle:    545  Sum sqs:       8.941358  Gnorm:    159.098957  CPU:   67.867
  Cycle:    546  Sum sqs:       8.926315  Gnorm:    340.761380  CPU:   67.992
  Cycle:    547  Sum sqs:       8.918955  Gnorm:     80.247994  CPU:   68.115
  Cycle:    548  Sum sqs:       8.913889  Gnorm:    145.354462  CPU:   68.239
  Cycle:    549  Sum sqs:       8.913368  Gnorm:     52.201153  CPU:   68.363
  Cycle:    550  Sum sqs:       8.913282  Gnorm:     32.468094  CPU:   68.489
  Cycle:    551  Sum sqs:       8.913043  Gnorm:    112.580002  CPU:   68.613
  Cycle:    552  Sum sqs:       8.910979  Gnorm:     27.923937  CPU:   68.736
  Cycle:    553  Sum sqs:       8.902816  Gnorm:    389.599490  CPU:   68.862
  Cycle:    554  Sum sqs:       8.900863  Gnorm:     47.686342  CPU:   68.987
  Cycle:    555  Sum sqs:       8.900370  Gnorm:     47.370669  CPU:   69.107
  Cycle:    556  Sum sqs:       8.899604  Gnorm:     31.075749  CPU:   69.232
  Cycle:    557  Sum sqs:       8.899576  Gnorm:      4.633159  CPU:   69.358
  Cycle:    558  Sum sqs:       8.899567  Gnorm:      9.042983  CPU:   69.479
  Cycle:    559  Sum sqs:       8.899552  Gnorm:      2.068792  CPU:   69.601
  Cycle:    560  Sum sqs:       8.899550  Gnorm:      5.904071  CPU:   69.728
  ** Hessian calculated **
  Cycle:    561  Sum sqs:       8.899550  Gnorm:      1.075346  CPU:   69.961


  **** Fit completed successfully ****


  Final sum of squares =             8.899550

  Final gradient norm  =             1.075346

  Final values of parameters :

--------------------------------------------------------------------------------
 Parameter No.    Parameter        Parameter      Parameter Type  Species
                  Original         Final                                 
--------------------------------------------------------------------------------
         1           1736.120000        87.845873 Buckingham A   
         2              0.292700         0.667646 Buckingham rho 
         3              0.294736         0.327389 Shell position    1   9 x
         4              0.926265         0.936756 Shell position    1   9 y
         5              0.556066         0.546336 Shell position    1   9 z
         6              0.926265         0.937046 Shell position    1  10 x
         7              0.556066         0.546190 Shell position    1  10 y
         8              0.294736         0.327242 Shell position    1  10 z
         9              0.443934         0.453543 Shell position    1  11 x
        10              0.705264         0.672810 Shell position    1  11 y
        11              0.073735         0.063199 Shell position    1  11 z
        12              0.073735         0.062960 Shell position    1  12 x
        13              0.443934         0.453699 Shell position    1  12 y
        14              0.705264         0.672877 Shell position    1  12 z
        15              0.705264         0.672725 Shell position    1  13 x
        16              0.073735         0.063262 Shell position    1  13 y
        17              0.443934         0.453544 Shell position    1  13 z
        18              0.556066         0.546354 Shell position    1  14 x
        19              0.294736         0.327322 Shell position    1  14 y
        20              0.926265         0.936784 Shell position    1  14 z
--------------------------------------------------------------------------------


  Final values of numerical parameter gradients :

--------------------------------------------------------------------------------
     Parameter No.       Parameter Gradient      Parameter Type  Species
--------------------------------------------------------------------------------
             1                  0.274656          Buckingham A   
             2                  0.020439          Buckingham rho 
             3                 -0.358074          Shell position    1   9 x
             4                 -0.073978          Shell position    1   9 y
             5                  0.562140          Shell position    1   9 z
             6                  0.162197          Shell position    1  10 x
             7                  0.209206          Shell position    1  10 y
             8                 -0.030233          Shell position    1  10 z
             9                 -0.162611          Shell position    1  11 x
            10                  0.117289          Shell position    1  11 y
            11                 -0.014453          Shell position    1  11 z
            12                  0.056405          Shell position    1  12 x
            13                 -0.115748          Shell position    1  12 y
            14                  0.141352          Shell position    1  12 z
            15                 -0.518779          Shell position    1  13 x
            16                 -0.077594          Shell position    1  13 y
            17                 -0.271594          Shell position    1  13 z
            18                  0.162635          Shell position    1  14 x
            19                  0.030417          Shell position    1  14 y
            20                  0.326461          Shell position    1  14 z
--------------------------------------------------------------------------------


  Final values of residuals :

--------------------------------------------------------------------------------
   Observable no.  Type            Observable   Calculated    Residual  Error(%)
--------------------------------------------------------------------------------
          1        Derivative         0.00000     -0.28341      0.08032
          2        Derivative         0.00000     -0.30891      0.09543
          3        Derivative         0.00000     -0.25229      0.06365
          4        Derivative         0.00000     -0.23286      0.05422
          5        Derivative         0.00000      0.11890      0.01414
          6        Derivative         0.00000      0.40159      0.16127
          7        Derivative         0.00000     -0.03275      0.00107
          8        Derivative         0.00000      0.48345      0.23372
          9        Derivative         0.00000     -0.16175      0.02616
         10        Derivative         0.00000     -0.35874      0.12870
         11        Derivative         0.00000      0.12492      0.01561
         12        Derivative         0.00000     -0.11056      0.01222
         13        Derivative         0.00000      0.02247      0.00050
         14        Derivative         0.00000     -0.42706      0.18238
         15        Derivative         0.00000      0.08907      0.00793
         16        Derivative         0.00000      0.16464      0.02711
         17        Derivative         0.00000     -0.13630      0.01858
         18        Derivative         0.00000     -0.34248      0.11730
         19        Derivative         0.00000      0.40856      0.16692
         20        Derivative         0.00000     -0.20365      0.04147
         21        Derivative         0.00000      0.11155      0.01244
         22        Derivative         0.00000     -0.25536      0.06521
         23        Derivative         0.00000      0.22748      0.05175
         24        Derivative         0.00000      0.15046      0.02264
         25        Derivative         0.00000      0.31709      0.10054
         26        Derivative         0.00000      0.10022      0.01004
         27        Derivative         0.00000     -0.28360      0.08043
         28        Derivative         0.00000     -0.23521      0.05532
         29        Derivative         0.00000      0.32872      0.10806
         30        Derivative         0.00000     -0.25336      0.06419
         31        Derivative         0.00000     -0.33108      0.10961
         32        Derivative         0.00000     -0.19135      0.03662
         33        Derivative         0.00000      0.34214      0.11706
         34        Derivative         0.00000      0.31059      0.09647
         35        Derivative         0.00000     -0.23554      0.05548
         36        Derivative         0.00000     -0.23979      0.05750
         37        Derivative         0.00000      0.15077      0.02273
         38        Derivative         0.00000     -0.26698      0.07128
         39        Derivative         0.00000      0.23333      0.05444
         40        Derivative         0.00000     -1.63377      2.66919
         41        Derivative         0.00000      0.41586      0.17294
         42        Derivative         0.00000      0.72536      0.52615
         43        Derivative         0.00000     -0.46029      0.21187
         44        Derivative         0.00000     -0.88341      0.78041
         45        Derivative         0.00000     -1.37785      1.89848
--------------------------------------------------------------------------------

  Comparison of initial and final observables :

--------------------------------------------------------------------------------
   Observable no.  Type            Observable   Initial       Final             
--------------------------------------------------------------------------------
          1        Derivative         0.00000      0.11174     -0.28341
          2        Derivative         0.00000      0.09206     -0.30891
          3        Derivative         0.00000      0.07151     -0.25229
          4        Derivative         0.00000     70.03555     -0.23286
          5        Derivative         0.00000     55.92701      0.11890
          6        Derivative         0.00000     43.35822      0.40159
          7        Derivative         0.00000     55.92701     -0.03275
          8        Derivative         0.00000     43.36270      0.48345
          9        Derivative         0.00000     70.03106     -0.16175
         10        Derivative         0.00000    -43.36430     -0.35874
         11        Derivative         0.00000    -70.04344      0.12492
         12        Derivative         0.00000    -55.92723     -0.11056
         13        Derivative         0.00000    -55.92724      0.02247
         14        Derivative         0.00000    -43.36237     -0.42706
         15        Derivative         0.00000    -70.03469      0.08907
         16        Derivative         0.00000    -70.03911      0.16464
         17        Derivative         0.00000    -55.92724     -0.13630
         18        Derivative         0.00000    -43.37120     -0.34248
         19        Derivative         0.00000     43.44744      0.40856
         20        Derivative         0.00000     70.12025     -0.20365
         21        Derivative         0.00000     56.06477      0.11155
         22        Derivative         0.00000   -105.39484     -0.25536
         23        Derivative         0.00000    -84.70911      0.22748
         24        Derivative         0.00000    -66.26838      0.15046
         25        Derivative         0.00000    -84.70912      0.31709
         26        Derivative         0.00000    -66.27619      0.10022
         27        Derivative         0.00000   -105.38704     -0.28360
         28        Derivative         0.00000     66.27937     -0.23521
         29        Derivative         0.00000    105.40915      0.32872
         30        Derivative         0.00000     84.71002     -0.25336
         31        Derivative         0.00000     84.70943     -0.33108
         32        Derivative         0.00000     66.27565     -0.19135
         33        Derivative         0.00000    105.39337      0.34214
         34        Derivative         0.00000    105.40100      0.31059
         35        Derivative         0.00000     84.70942     -0.23554
         36        Derivative         0.00000     66.29077     -0.23979
         37        Derivative         0.00000    -66.37763      0.15077
         38        Derivative         0.00000   -105.47728     -0.26698
         39        Derivative         0.00000    -84.84224      0.23333
         40        Derivative         0.00000     31.61907     -1.63377
         41        Derivative         0.00000     15.05357      0.41586
         42        Derivative         0.00000     12.23373      0.72536
         43        Derivative         0.00000      3.38244     -0.46029
         44        Derivative         0.00000      6.99302     -0.88341
         45        Derivative         0.00000     10.46886     -1.37785
--------------------------------------------------------------------------------

  Maximum range for interatomic potentials =    100000.000000 Angstroms

  General interatomic potentials :

--------------------------------------------------------------------------------
Atom  Types   Potential      Parameter       Value         Units   Cutoffs(Ang)
  1     2                                                            Min /  Max 
--------------------------------------------------------------------------------
Cl   c Cl   s Spring (c-s)  Spring k 2       29.380000    eV*Ang^-2 0.000  0.800
                            Spring k 4       0.0000000    eV*Ang^-4 
--------------------------------------------------------------------------------
Sc   c Cl   s Buckingham    Buckingham A     87.845873    eV        0.000 12.000
                            Buckingham rho  0.66764640    Ang       
                            Buckingham C     0.0000000    eV*Ang^6  
--------------------------------------------------------------------------------
Cl   s Cl   s Buckingham    Buckingham A     1227.2000    eV        0.000 12.000
                            Buckingham rho  0.32100000    Ang       
                            Buckingham C     14.530000    eV*Ang^6  
--------------------------------------------------------------------------------



  Total time to end of fitting =      69.9642 seconds

********************************************************************************
*  Output for configuration   1                                                *
********************************************************************************


  Components of energy : 

--------------------------------------------------------------------------------
  Interatomic potentials     =          39.36745937 eV    
  Monopole - monopole (real) =          78.84334167 eV    
  Monopole - monopole (recip)=        -197.48567349 eV    
  Monopole - monopole (total)=        -118.64233182 eV    
--------------------------------------------------------------------------------
  Total lattice energy       =         -79.27487245 eV    
--------------------------------------------------------------------------------
  Total lattice energy       =           -7648.8134 kJ/(mole unit cells)
--------------------------------------------------------------------------------


  Number of variables =       45

  Maximum number of calculations  =          1000
  Maximum Hessian update interval =            10
  Maximum step size               =   1.000000000
  Maximum parameter tolerance     =   0.000010000
  Maximum function  tolerance     =   0.000010000
  Maximum gradient  tolerance     =   0.001000000
  Maximum gradient  component     =   0.010000000

  Cell parameters to be optimised using strains

  Newton-Raphson optimiser to be used

  BFGS hessian update to be used

  Lower half triangular hessian to be used

  Start of bulk optimisation :

  Cycle:      0 Energy:       -79.274872  Gnorm:      0.066294  CPU:   69.971
  ** Hessian calculated **
  Cycle:      1 Energy:       -79.580862  Gnorm:      0.268849  CPU:   69.985
  Cycle:      2 Energy:       -79.607361  Gnorm:      0.158436  CPU:   69.999
  Cycle:      3 Energy:       -79.623819  Gnorm:      0.221622  CPU:   70.013
  Cycle:      4 Energy:       -79.630478  Gnorm:      0.074267  CPU:   70.024
  Cycle:      5 Energy:       -79.631691  Gnorm:      0.136077  CPU:   70.035
  Cycle:      6 Energy:       -79.633079  Gnorm:      0.225823  CPU:   70.049
  Cycle:      7 Energy:       -79.634375  Gnorm:      0.300308  CPU:   70.063
  Cycle:      8 Energy:       -79.635024  Gnorm:      0.342736  CPU:   70.075
  Cycle:      9 Energy:       -79.636736  Gnorm:      0.396145  CPU:   70.089
  Cycle:     10 Energy:       -79.637772  Gnorm:      0.409534  CPU:   70.101
  ** Hessian calculated **
  Cycle:     11 Energy:       -79.646651  Gnorm:      0.099983  CPU:   70.120
  Cycle:     12 Energy:       -79.651626  Gnorm:      0.105571  CPU:   70.134
  Cycle:     13 Energy:       -79.660976  Gnorm:      0.215179  CPU:   70.148
  Cycle:     14 Energy:       -79.761202  Gnorm:      0.579230  CPU:   70.171
  Cycle:     15 Energy:       -79.804054  Gnorm:      1.095812  CPU:   70.183
  ** Hessian calculated **
  Cycle:     16 Energy:       -80.210621  Gnorm:      1.727742  CPU:   70.204
  ** Hessian calculated **
  Cycle:     17 Energy:       -80.398604  Gnorm:      1.126049  CPU:   70.222
  Cycle:     18 Energy:       -81.106278  Gnorm:      3.083978  CPU:   70.238
  Cycle:     19 Energy:       -82.834305  Gnorm:      4.805866  CPU:   70.256
  ** Hessian calculated **
  Cycle:     20 Energy:       -84.967220  Gnorm:      4.552138  CPU:   70.273
  Cycle:     21 Energy:       -88.290347  Gnorm:      6.663563  CPU:   70.287
  ** Hessian calculated **
  Cycle:     22 Energy:       -91.631332  Gnorm:      7.325598  CPU:   70.304
  ** Hessian calculated **
  Cycle:     23 Energy:       -91.726677  Gnorm:      5.611276  CPU:   70.323
  ** Hessian calculated **
  Cycle:     24 Energy:      -133.340852  Gnorm:    177.549698  CPU:   70.365
  ** Hessian calculated **


!!!!!!!!!!!!!!!!!!!!!!!!!!!!!!!!!!!!!!!!!!!!!!!!!!!!!!!!!!!!!!!!!!!!!!!!!!!!!!!!
!! ERROR : Largest core-shell distance exceeds cutoff of cuts
!!!!!!!!!!!!!!!!!!!!!!!!!!!!!!!!!!!!!!!!!!!!!!!!!!!!!!!!!!!!!!!!!!!!!!!!!!!!!!!!


  Largest core-shell distance =   2.6726 Angstroms


 Program terminated by processor     0 in            cutscheck

