********************************************************************************
*                       GENERAL UTILITY LATTICE PROGRAM                        *
*                                 Julian Gale                                  *
*                       Curtin Institute for Computation                       *
*                    School of Molecular and Life Sciences                     *
*                    Curtin University, Western Australia                      *
********************************************************************************
* Version = 5.2.0 * Last modified =   1st June 2020                            *
********************************************************************************
*  fit          - perform fitting run                                          *
*  optimise     - perform optimisation run after fitting                       *
*  conp         - constant pressure calculation                                *
*  nosymmetry   - turn off symmetry after initial structure generation         *
*  simultaneous - relax shell positions and radii during fitting               *
*  compare      - compare initial and final structures                         *
********************************************************************************

  Job Started  at 15:06.52 23rd March      2022                               

  Number of CPUs =     1


  Total number of configurations input =      1

********************************************************************************
*  Input for Configuration =   1                                               *
********************************************************************************

  Formula = Sc2Cl6                                                      

  Number of irreducible atoms/shells =      14


  Total number atoms/shells =      14

  Dimensionality = 3               :  Bulk   



  Cartesian lattice vectors (Angstroms) :

        3.246588    1.874418    6.441540
       -3.246588    1.874418    6.441540
        0.000000   -3.748837    6.441540

  Cell parameters (Angstroms/Degrees):

  a =       7.4530    alpha =  51.6480
  b =       7.4530    beta  =  51.6480
  c =       7.4530    gamma =  51.6480

  Initial cell volume =         235.198534 Angs**3

  Temperature of configuration =   0.00     K 

  Pressure of configuration =         0.000 GPa 

  Fractional coordinates of asymmetric unit :

--------------------------------------------------------------------------------
   No.  Atomic       x           y          z         Charge      Occupancy
        Label      (Frac)      (Frac)     (Frac)        (e)         (Frac)  
--------------------------------------------------------------------------------
      1 Sc    c    0.333900    0.333900    0.333900     3.00000    1.000000    
      2 Sc    c    0.666100 *  0.666100 *  0.666100 *   3.00000    1.000000    
      3 Cl    c    0.073700 *  0.443900 *  0.705300 *   1.48500    1.000000    
      4 Cl    c    0.705300 *  0.073700 *  0.443900 *   1.48500    1.000000    
      5 Cl    c    0.443900 *  0.705300 *  0.073700 *   1.48500    1.000000    
      6 Cl    c    0.926300 *  0.556100 *  0.294700 *   1.48500    1.000000    
      7 Cl    c    0.294700 *  0.926300 *  0.556100 *   1.48500    1.000000    
      8 Cl    c    0.556100 *  0.294700 *  0.926300 *   1.48500    1.000000    
      9 Cl    s    0.073700 *  0.443900 *  0.705300 *  -2.48500    1.000000    
     10 Cl    s    0.705300 *  0.073700 *  0.443900 *  -2.48500    1.000000    
     11 Cl    s    0.443900 *  0.705300 *  0.073700 *  -2.48500    1.000000    
     12 Cl    s    0.926300 *  0.556100 *  0.294700 *  -2.48500    1.000000    
     13 Cl    s    0.294700 *  0.926300 *  0.556100 *  -2.48500    1.000000    
     14 Cl    s    0.556100 *  0.294700 *  0.926300 *  -2.48500    1.000000    
--------------------------------------------------------------------------------



********************************************************************************
*  General input information                                                   *
********************************************************************************

  Species output for all configurations : 

--------------------------------------------------------------------------------
  Species    Type    Atomic    Atomic    Charge       Radii (Angs)     Library
                     Number     Mass       (e)     Cova   Ionic  VDW   Symbol
--------------------------------------------------------------------------------
    Sc       Core       21      44.96   3.000000   1.440  0.000  2.150          
    Cl       Core       17      35.45   1.485000   0.990  0.000  1.650          
    Cl       Shell      17       0.00  -2.485000   0.990  0.000  1.650          
--------------------------------------------------------------------------------


  Lattice summation method               =    Ewald          (3-D)
                                         =    Parry          (2-D)
                                         =    Saunders et al (1-D)
  Accuracy factor for lattice sums       =   12.000


  Analytic derivatives to be used

  Time limit = Infinity

  Maximum range for interatomic potentials =    100000.000000 Angstroms

  General interatomic potentials :

--------------------------------------------------------------------------------
Atom  Types   Potential      Parameter       Value         Units   Cutoffs(Ang)
  1     2                                                            Min /  Max 
--------------------------------------------------------------------------------
Cl   c Cl   s Spring (c-s)  Spring k 2       29.380000    eV*Ang^-2 0.000  0.800
                            Spring k 4       0.0000000    eV*Ang^-4 
--------------------------------------------------------------------------------
Sc   c Cl   s Buckingham    Buckingham A     1736.1200    eV        0.000 12.000
                            Buckingham rho  0.29270000    Ang       
                            Buckingham C     0.0000000    eV*Ang^6  
--------------------------------------------------------------------------------
Cl   s Cl   s Buckingham    Buckingham A     1227.2000    eV        0.000 12.000
                            Buckingham rho  0.32100000    Ang       
                            Buckingham C     14.530000    eV*Ang^6  
--------------------------------------------------------------------------------


  Number of variables   =   21
  Number of observables =   45

--------------------------------------------------------------------------------
   Observable no.  Type           Observable    Weight       Reference  Confign 
--------------------------------------------------------------------------------
          1        Derivative        0.000000        1.0000    2 x         1
          2        Derivative        0.000000        1.0000    2 y         1
          3        Derivative        0.000000        1.0000    2 z         1
          4        Derivative        0.000000        1.0000    3 x         1
          5        Derivative        0.000000        1.0000    3 y         1
          6        Derivative        0.000000        1.0000    3 z         1
          7        Derivative        0.000000        1.0000    4 x         1
          8        Derivative        0.000000        1.0000    4 y         1
          9        Derivative        0.000000        1.0000    4 z         1
         10        Derivative        0.000000        1.0000    5 x         1
         11        Derivative        0.000000        1.0000    5 y         1
         12        Derivative        0.000000        1.0000    5 z         1
         13        Derivative        0.000000        1.0000    6 x         1
         14        Derivative        0.000000        1.0000    6 y         1
         15        Derivative        0.000000        1.0000    6 z         1
         16        Derivative        0.000000        1.0000    7 x         1
         17        Derivative        0.000000        1.0000    7 y         1
         18        Derivative        0.000000        1.0000    7 z         1
         19        Derivative        0.000000        1.0000    8 x         1
         20        Derivative        0.000000        1.0000    8 y         1
         21        Derivative        0.000000        1.0000    8 z         1
         22        Derivative        0.000000        1.0000    9 x         1
         23        Derivative        0.000000        1.0000    9 y         1
         24        Derivative        0.000000        1.0000    9 z         1
         25        Derivative        0.000000        1.0000   10 x         1
         26        Derivative        0.000000        1.0000   10 y         1
         27        Derivative        0.000000        1.0000   10 z         1
         28        Derivative        0.000000        1.0000   11 x         1
         29        Derivative        0.000000        1.0000   11 y         1
         30        Derivative        0.000000        1.0000   11 z         1
         31        Derivative        0.000000        1.0000   12 x         1
         32        Derivative        0.000000        1.0000   12 y         1
         33        Derivative        0.000000        1.0000   12 z         1
         34        Derivative        0.000000        1.0000   13 x         1
         35        Derivative        0.000000        1.0000   13 y         1
         36        Derivative        0.000000        1.0000   13 z         1
         37        Derivative        0.000000        1.0000   14 x         1
         38        Derivative        0.000000        1.0000   14 y         1
         39        Derivative        0.000000        1.0000   14 z         1
         40        Derivative        0.000000        1.0000    a           1
         41        Derivative        0.000000        1.0000    b           1
         42        Derivative        0.000000        1.0000    c           1
         43        Derivative        0.000000        1.0000    alpha       1
         44        Derivative        0.000000        1.0000    beta        1
         45        Derivative        0.000000        1.0000    gamma       1
--------------------------------------------------------------------------------

  Variables :

--------------------------------------------------------------------------------
     Parameter No.       Parameter Value          Parameter Type  Species
--------------------------------------------------------------------------------
             1                 29.380000          Spring k 2     
             2               1736.120000          Buckingham A   
             3                  0.292700          Buckingham rho 
             4                  0.073700          Shell position    1   9 x
             5                  0.443900          Shell position    1   9 y
             6                  0.705300          Shell position    1   9 z
             7                  0.705300          Shell position    1  10 x
             8                  0.073700          Shell position    1  10 y
             9                  0.443900          Shell position    1  10 z
            10                  0.443900          Shell position    1  11 x
            11                  0.705300          Shell position    1  11 y
            12                  0.073700          Shell position    1  11 z
            13                  0.926300          Shell position    1  12 x
            14                  0.556100          Shell position    1  12 y
            15                  0.294700          Shell position    1  12 z
            16                  0.294700          Shell position    1  13 x
            17                  0.926300          Shell position    1  13 y
            18                  0.556100          Shell position    1  13 z
            19                  0.556100          Shell position    1  14 x
            20                  0.294700          Shell position    1  14 y
            21                  0.926300          Shell position    1  14 z
--------------------------------------------------------------------------------

  Simultaneous optimisation will be performed during fitting
  First derivatives of residuals to be used in fitting

  Maximum no. of cycles   =       5000
  Maximum step size       =  1000.0000
  Tolerance on parameters =  0.0000100
  Tolerance on function   =  0.0000100
  Tolerance on gradient   =  0.0001000
  Differencing interval   =  0.0001000

  Start of fitting :

  Cycle:      0  Sum sqs:  197119.201811  Gnorm:3984753.662049  CPU:    0.135
  ** Hessian calculated **
  Cycle:      1  Sum sqs:   82944.876936  Gnorm:2146963.905027  CPU:    0.276
  Cycle:      2  Sum sqs:   18357.804810  Gnorm: 150198.509917  CPU:    0.408
  Cycle:      3  Sum sqs:   18133.720488  Gnorm: 260507.862116  CPU:    0.532
  Cycle:      4  Sum sqs:   13427.195277  Gnorm: 315871.097406  CPU:    0.655
  Cycle:      5  Sum sqs:   12879.708653  Gnorm: 156073.807228  CPU:    0.777
  Cycle:      6  Sum sqs:    4916.882942  Gnorm: 619481.021864  CPU:    0.912
  Cycle:      7  Sum sqs:    4875.572923  Gnorm: 662108.010399  CPU:    1.039
  Cycle:      8  Sum sqs:    1688.102730  Gnorm: 494098.848969  CPU:    1.166
  Cycle:      9  Sum sqs:     574.625232  Gnorm: 163961.208059  CPU:    1.288
  Cycle:     10  Sum sqs:     275.796906  Gnorm:  75104.925787  CPU:    1.404
  Cycle:     11  Sum sqs:     251.648921  Gnorm:  66082.468745  CPU:    1.524
  Cycle:     12  Sum sqs:     191.420269  Gnorm:  27442.665509  CPU:    1.643
  Cycle:     13  Sum sqs:     189.335898  Gnorm:  19602.797877  CPU:    1.762
  Cycle:     14  Sum sqs:     186.252912  Gnorm:   6747.106174  CPU:    1.883
  Cycle:     15  Sum sqs:     158.510756  Gnorm:  43323.053482  CPU:    2.012
  Cycle:     16  Sum sqs:     152.249345  Gnorm:  53272.743302  CPU:    2.131
  Cycle:     17  Sum sqs:     103.060012  Gnorm:  79600.128546  CPU:    2.251
  Cycle:     18  Sum sqs:      77.104080  Gnorm:  26012.729299  CPU:    2.371
  Cycle:     19  Sum sqs:      52.065528  Gnorm:  49279.729003  CPU:    2.502
  Cycle:     20  Sum sqs:      30.176433  Gnorm:  49382.024214  CPU:    2.623
  ** Hessian calculated **
  Cycle:     21  Sum sqs:      16.975762  Gnorm:   7823.388525  CPU:    2.863
  Cycle:     22  Sum sqs:      13.897715  Gnorm:   3517.924026  CPU:    2.983
  Cycle:     23  Sum sqs:      13.280020  Gnorm:   1062.988646  CPU:    3.102
  Cycle:     24  Sum sqs:      12.902549  Gnorm:   4690.110173  CPU:    3.218
  Cycle:     25  Sum sqs:      11.250676  Gnorm:   3064.843580  CPU:    3.338
  Cycle:     26  Sum sqs:      10.656648  Gnorm:   5659.317095  CPU:    3.457
  Cycle:     27  Sum sqs:       8.434703  Gnorm:  13118.341292  CPU:    3.577
  Cycle:     28  Sum sqs:       3.471673  Gnorm:   3655.669025  CPU:    3.700
  Cycle:     29  Sum sqs:       1.342898  Gnorm:   2632.366545  CPU:    3.820
  Cycle:     30  Sum sqs:       1.186238  Gnorm:    981.829068  CPU:    3.939
  Cycle:     31  Sum sqs:       1.090614  Gnorm:    934.672684  CPU:    4.058
  Cycle:     32  Sum sqs:       0.976270  Gnorm:   1803.438112  CPU:    4.177
  Cycle:     33  Sum sqs:       0.876341  Gnorm:    672.306754  CPU:    4.299
  Cycle:     34  Sum sqs:       0.868017  Gnorm:    333.667664  CPU:    4.415
  Cycle:     35  Sum sqs:       0.865388  Gnorm:     85.166296  CPU:    4.532
  Cycle:     36  Sum sqs:       0.864928  Gnorm:    129.204374  CPU:    4.648
  Cycle:     37  Sum sqs:       0.863215  Gnorm:    149.970548  CPU:    4.768
  Cycle:     38  Sum sqs:       0.862001  Gnorm:     20.146220  CPU:    4.887
  Cycle:     39  Sum sqs:       0.861960  Gnorm:     24.152257  CPU:    5.006
  Cycle:     40  Sum sqs:       0.861814  Gnorm:     25.914121  CPU:    5.126
  ** Hessian calculated **
  Cycle:     41  Sum sqs:       0.861795  Gnorm:     20.083810  CPU:    5.351
  Cycle:     42  Sum sqs:       0.861788  Gnorm:     16.236126  CPU:    5.469


  **** Fit completed successfully ****


  Final sum of squares =             0.861788

  Final gradient norm  =            16.236126

  Final values of parameters :

--------------------------------------------------------------------------------
 Parameter No.    Parameter        Parameter      Parameter Type  Species
                  Original         Final                                 
--------------------------------------------------------------------------------
         1             29.380000        36.105191 Spring k 2     
         2           1736.120000      4740.430929 Buckingham A   
         3              0.292700         0.286111 Buckingham rho 
         4              0.073700         0.064604 Shell position    1   9 x
         5              0.443900         0.450997 Shell position    1   9 y
         6              0.705300         0.678542 Shell position    1   9 z
         7              0.705300         0.678543 Shell position    1  10 x
         8              0.073700         0.064604 Shell position    1  10 y
         9              0.443900         0.450997 Shell position    1  10 z
        10              0.443900         0.450997 Shell position    1  11 x
        11              0.705300         0.678543 Shell position    1  11 y
        12              0.073700         0.064603 Shell position    1  11 z
        13              0.926300         0.935389 Shell position    1  12 x
        14              0.556100         0.548950 Shell position    1  12 y
        15              0.294700         0.321492 Shell position    1  12 z
        16              0.294700         0.321491 Shell position    1  13 x
        17              0.926300         0.935390 Shell position    1  13 y
        18              0.556100         0.548951 Shell position    1  13 z
        19              0.556100         0.548950 Shell position    1  14 x
        20              0.294700         0.321491 Shell position    1  14 y
        21              0.926300         0.935390 Shell position    1  14 z
--------------------------------------------------------------------------------


  Final values of numerical parameter gradients :

--------------------------------------------------------------------------------
     Parameter No.       Parameter Gradient      Parameter Type  Species
--------------------------------------------------------------------------------
             1                  0.523527          Spring k 2     
             2                  0.282614          Buckingham A   
             3                  0.209390          Buckingham rho 
             4                 -0.801422          Shell position    1   9 x
             5                 -3.539313          Shell position    1   9 y
             6                 -7.217818          Shell position    1   9 z
             7                 -7.041126          Shell position    1  10 x
             8                 -0.971005          Shell position    1  10 y
             9                 -3.759888          Shell position    1  10 z
            10                 -0.517635          Shell position    1  11 x
            11                 -1.816019          Shell position    1  11 y
            12                 -0.575535          Shell position    1  11 z
            13                  3.639333          Shell position    1  12 x
            14                  7.107377          Shell position    1  12 y
            15                  3.629162          Shell position    1  12 z
            16                  1.837096          Shell position    1  13 x
            17                  2.256398          Shell position    1  13 y
            18                  5.300487          Shell position    1  13 z
            19                  0.472447          Shell position    1  14 x
            20                 -0.308212          Shell position    1  14 y
            21                 -3.947648          Shell position    1  14 z
--------------------------------------------------------------------------------


  Final values of residuals :

--------------------------------------------------------------------------------
   Observable no.  Type            Observable   Calculated    Residual  Error(%)
--------------------------------------------------------------------------------
          1        Derivative         0.00000     -0.49775      0.24776
          2        Derivative         0.00000     -0.49785      0.24786
          3        Derivative         0.00000     -0.49776      0.24777
          4        Derivative         0.00000      0.00961      0.00009
          5        Derivative         0.00000      0.01519      0.00023
          6        Derivative         0.00000      0.02262      0.00051
          7        Derivative         0.00000      0.02237      0.00050
          8        Derivative         0.00000      0.01008      0.00010
          9        Derivative         0.00000      0.01524      0.00023
         10        Derivative         0.00000      0.01446      0.00021
         11        Derivative         0.00000      0.02201      0.00048
         12        Derivative         0.00000      0.01035      0.00011
         13        Derivative         0.00000      0.02252      0.00051
         14        Derivative         0.00000      0.05123      0.00262
         15        Derivative         0.00000     -0.01832      0.00034
         16        Derivative         0.00000     -0.01731      0.00030
         17        Derivative         0.00000      0.02203      0.00049
         18        Derivative         0.00000      0.05127      0.00263
         19        Derivative         0.00000      0.05218      0.00272
         20        Derivative         0.00000     -0.01720      0.00030
         21        Derivative         0.00000      0.02197      0.00048
         22        Derivative         0.00000      0.07962      0.00634
         23        Derivative         0.00000     -0.10602      0.01124
         24        Derivative         0.00000     -0.04102      0.00168
         25        Derivative         0.00000     -0.04072      0.00166
         26        Derivative         0.00000      0.07918      0.00627
         27        Derivative         0.00000     -0.10604      0.01124
         28        Derivative         0.00000     -0.10516      0.01106
         29        Derivative         0.00000     -0.04029      0.00162
         30        Derivative         0.00000      0.07897      0.00624
         31        Derivative         0.00000     -0.12036      0.01449
         32        Derivative         0.00000      0.02369      0.00056
         33        Derivative         0.00000      0.03304      0.00109
         34        Derivative         0.00000      0.03190      0.00102
         35        Derivative         0.00000     -0.11988      0.01437
         36        Derivative         0.00000      0.02369      0.00056
         37        Derivative         0.00000      0.02265      0.00051
         38        Derivative         0.00000      0.03175      0.00101
         39        Derivative         0.00000     -0.11992      0.01438
         40        Derivative         0.00000      0.00818      0.00007
         41        Derivative         0.00000      0.00823      0.00007
         42        Derivative         0.00000     -0.00891      0.00008
         43        Derivative         0.00000     -0.00006      0.00000
         44        Derivative         0.00000     -0.00005      0.00000
         45        Derivative         0.00000      0.00007      0.00000
--------------------------------------------------------------------------------

  Comparison of initial and final observables :

--------------------------------------------------------------------------------
   Observable no.  Type            Observable   Initial       Final             
--------------------------------------------------------------------------------
          1        Derivative         0.00000     -0.13321     -0.49775
          2        Derivative         0.00000     -0.13454     -0.49785
          3        Derivative         0.00000     -0.12288     -0.49776
          4        Derivative         0.00000    -55.94417      0.00961
          5        Derivative         0.00000    -43.33282      0.01519
          6        Derivative         0.00000    -70.01711      0.02262
          7        Derivative         0.00000    -70.02153      0.02237
          8        Derivative         0.00000    -55.94417      0.01008
          9        Derivative         0.00000    -43.34165      0.01524
         10        Derivative         0.00000    -43.33475      0.01446
         11        Derivative         0.00000    -70.02586      0.02201
         12        Derivative         0.00000    -55.94415      0.01035
         13        Derivative         0.00000     55.94394      0.02252
         14        Derivative         0.00000     43.33315      0.05123
         15        Derivative         0.00000     70.01349     -0.01832
         16        Derivative         0.00000     70.01797     -0.01731
         17        Derivative         0.00000     55.94393      0.02203
         18        Derivative         0.00000     43.32867      0.05127
         19        Derivative         0.00000     43.41789      0.05218
         20        Derivative         0.00000     70.10268     -0.01720
         21        Derivative         0.00000     56.08170      0.02197
         22        Derivative         0.00000     84.72393      0.07962
         23        Derivative         0.00000     66.23143     -0.10602
         24        Derivative         0.00000    105.36669     -0.04102
         25        Derivative         0.00000    105.37433     -0.04072
         26        Derivative         0.00000     84.72393      0.07918
         27        Derivative         0.00000     66.24656     -0.10604
         28        Derivative         0.00000     66.23515     -0.10516
         29        Derivative         0.00000    105.38248     -0.04029
         30        Derivative         0.00000     84.72452      0.07897
         31        Derivative         0.00000    -84.72362     -0.12036
         32        Derivative         0.00000    -66.23198      0.02369
         33        Derivative         0.00000   -105.36036      0.03304
         34        Derivative         0.00000   -105.36817      0.03190
         35        Derivative         0.00000    -84.72362     -0.11988
         36        Derivative         0.00000    -66.22417      0.02369
         37        Derivative         0.00000    -66.33344      0.02265
         38        Derivative         0.00000   -105.45061      0.03175
         39        Derivative         0.00000    -84.85675     -0.11992
         40        Derivative         0.00000      9.99357      0.00818
         41        Derivative         0.00000      9.98105      0.00823
         42        Derivative         0.00000     38.92803     -0.00891
         43        Derivative         0.00000      0.00450     -0.00006
         44        Derivative         0.00000      0.00009     -0.00005
         45        Derivative         0.00000     -0.00161      0.00007
--------------------------------------------------------------------------------

  Maximum range for interatomic potentials =    100000.000000 Angstroms

  General interatomic potentials :

--------------------------------------------------------------------------------
Atom  Types   Potential      Parameter       Value         Units   Cutoffs(Ang)
  1     2                                                            Min /  Max 
--------------------------------------------------------------------------------
Cl   c Cl   s Spring (c-s)  Spring k 2       36.105191    eV*Ang^-2 0.000  0.800
                            Spring k 4       0.0000000    eV*Ang^-4 
--------------------------------------------------------------------------------
Sc   c Cl   s Buckingham    Buckingham A     4740.4309    eV        0.000 12.000
                            Buckingham rho  0.28611116    Ang       
                            Buckingham C     0.0000000    eV*Ang^6  
--------------------------------------------------------------------------------
Cl   s Cl   s Buckingham    Buckingham A     1227.2000    eV        0.000 12.000
                            Buckingham rho  0.32100000    Ang       
                            Buckingham C     14.530000    eV*Ang^6  
--------------------------------------------------------------------------------



  Total time to end of fitting =       5.4721 seconds

********************************************************************************
*  Output for configuration   1                                                *
********************************************************************************


  Components of energy : 

--------------------------------------------------------------------------------
  Interatomic potentials     =          19.91523362 eV    
  Monopole - monopole (real) =          81.63640372 eV    
  Monopole - monopole (recip)=        -197.17036935 eV    
  Monopole - monopole (total)=        -115.53396563 eV    
--------------------------------------------------------------------------------
  Total lattice energy       =         -95.61873202 eV    
--------------------------------------------------------------------------------
  Total lattice energy       =           -9225.7460 kJ/(mole unit cells)
--------------------------------------------------------------------------------


  Number of variables =       45

  Maximum number of calculations  =          1000
  Maximum Hessian update interval =            10
  Maximum step size               =   1.000000000
  Maximum parameter tolerance     =   0.000010000
  Maximum function  tolerance     =   0.000010000
  Maximum gradient  tolerance     =   0.001000000
  Maximum gradient  component     =   0.010000000

  Cell parameters to be optimised using strains

  Newton-Raphson optimiser to be used

  BFGS hessian update to be used

  Lower half triangular hessian to be used

  Start of bulk optimisation :

  Cycle:      0 Energy:       -95.618732  Gnorm:      0.020629  CPU:    5.478
  ** Hessian calculated **
  Cycle:      1 Energy:       -95.620058  Gnorm:      0.001729  CPU:    5.490


  **** Optimisation achieved ****


  Final energy =     -95.62005907 eV
  Final Gnorm  =       0.00014815

  Components of energy : 

--------------------------------------------------------------------------------
  Interatomic potentials     =          19.90686126 eV    
  Monopole - monopole (real) =          81.32667601 eV    
  Monopole - monopole (recip)=        -196.85359634 eV    
  Monopole - monopole (total)=        -115.52692033 eV    
--------------------------------------------------------------------------------
  Total lattice energy       =         -95.62005907 eV    
--------------------------------------------------------------------------------
  Total lattice energy       =           -9225.8740 kJ/(mole unit cells)
--------------------------------------------------------------------------------

  Final fractional coordinates of atoms :

--------------------------------------------------------------------------------
   No.  Atomic        x           y          z          Radius
        Label       (Frac)      (Frac)     (Frac)       (Angs) 
--------------------------------------------------------------------------------
     1  Sc    c     0.333900    0.333900    0.333900    0.000000
     2  Sc    c     0.667755    0.667755    0.667755    0.000000
     3  Cl    c     0.075588    0.445465    0.704023    0.000000
     4  Cl    c     0.704024    0.075588    0.445464    0.000000
     5  Cl    c     0.445465    0.704024    0.075587    0.000000
     6  Cl    c     0.926067    0.556190    0.297633    0.000000
     7  Cl    c     0.297632    0.926067    0.556191    0.000000
     8  Cl    c     0.556190    0.297631    0.926068    0.000000
     9  Cl    s     0.065885    0.452635    0.677803    0.000000
    10  Cl    s     0.677804    0.065886    0.452634    0.000000
    11  Cl    s     0.452635    0.677804    0.065885    0.000000
    12  Cl    s     0.935770    0.549021    0.323852    0.000000
    13  Cl    s     0.323851    0.935770    0.549022    0.000000
    14  Cl    s     0.549021    0.323851    0.935771    0.000000
--------------------------------------------------------------------------------

  Final Cartesian lattice vectors (Angstroms) :

        3.248241    1.875363    6.466746
       -3.248240    1.875363    6.466745
        0.000001   -3.750756    6.466754


  Final cell parameters and derivatives :

--------------------------------------------------------------------------------
       a            7.475751 Angstrom     dE/de1(xx)     0.000520 eV/strain
       b            7.475750 Angstrom     dE/de2(yy)     0.000507 eV/strain
       c            7.475766 Angstrom     dE/de3(zz)     0.001003 eV/strain
       alpha       51.507373 Degrees      dE/de4(yz)     0.000001 eV/strain
       beta        51.507367 Degrees      dE/de5(xz)     0.000000 eV/strain
       gamma       51.507423 Degrees      dE/de6(xy)    -0.000003 eV/strain
--------------------------------------------------------------------------------

  Primitive cell volume =           236.359478 Angs**3

  Density of cell =      2.126085 g/cm**3

  Non-primitive cell volume =           236.359478 Angs**3


  Final internal derivatives :

--------------------------------------------------------------------------------
   No.  Atomic          a             b             c           Radius
        Label          (eV)          (eV)          (eV)        (eV/Angs)
--------------------------------------------------------------------------------
      1 Sc    c       0.000000      0.000000      0.000000      0.000000
      2 Sc    c      -0.001634     -0.001644     -0.001607      0.000000
      3 Cl    c       0.000307     -0.000774     -0.000551      0.000000
      4 Cl    c      -0.000545      0.000323     -0.000773      0.000000
      5 Cl    c      -0.000785     -0.000574      0.000298      0.000000
      6 Cl    c      -0.000246      0.000780      0.000643      0.000000
      7 Cl    c       0.000635     -0.000263      0.000777      0.000000
      8 Cl    c       0.000790      0.000665     -0.000239      0.000000
      9 Cl    s       0.000769      0.001374      0.001423      0.000000
     10 Cl    s       0.001424      0.000762      0.001377      0.000000
     11 Cl    s       0.001376      0.001434      0.000769      0.000000
     12 Cl    s      -0.000855     -0.001387     -0.001539      0.000000
     13 Cl    s      -0.001538     -0.000848     -0.001389      0.000000
     14 Cl    s      -0.001389     -0.001549     -0.000854      0.000000
--------------------------------------------------------------------------------
  Maximum abs         0.001634      0.001644      0.001607      0.000000
--------------------------------------------------------------------------------

  Comparison of initial and final structures : 

--------------------------------------------------------------------------------
  Parameter   Initial value   Final value   Difference    Units      Percent
--------------------------------------------------------------------------------
    Volume       235.198534    236.359478     1.160943    Angs**3      0.49
    a              7.453000      7.475751     0.022751    Angstroms    0.31
    b              7.453000      7.475750     0.022750    Angstroms    0.31
    c              7.453000      7.475766     0.022766    Angstroms    0.31
    alpha         51.648000     51.507373    -0.140627    Degrees     -0.27
    beta          51.648000     51.507367    -0.140633    Degrees     -0.27
    gamma         51.648000     51.507423    -0.140577    Degrees     -0.27
      1 x          0.333900      0.333900     0.000000    Fractional   0.00
      1 y          0.333900      0.333900     0.000000    Fractional   0.00
      1 z          0.333900      0.333900     0.000000    Fractional   0.00
      2 x          0.666100      0.667755     0.001655    Fractional   0.25
      2 y          0.666100      0.667755     0.001655    Fractional   0.25
      2 z          0.666100      0.667755     0.001655    Fractional   0.25
      3 x          0.073700      0.075588     0.001888    Fractional   2.56
      3 y          0.443900      0.445465     0.001565    Fractional   0.35
      3 z          0.705300      0.704023     0.001277    Fractional   0.18
      4 x          0.705300      0.704024     0.001276    Fractional   0.18
      4 y          0.073700      0.075588     0.001888    Fractional   2.56
      4 z          0.443900      0.445464     0.001564    Fractional   0.35
      5 x          0.443900      0.445465     0.001565    Fractional   0.35
      5 y          0.705300      0.704024     0.001276    Fractional   0.18
      5 z          0.073700      0.075587     0.001887    Fractional   2.56
      6 x          0.926300      0.926067     0.000233    Fractional   0.03
      6 y          0.556100      0.556190     0.000090    Fractional   0.02
      6 z          0.294700      0.297633     0.002933    Fractional   1.00
      7 x          0.294700      0.297632     0.002932    Fractional   0.99
      7 y          0.926300      0.926067     0.000233    Fractional   0.03
      7 z          0.556100      0.556191     0.000091    Fractional   0.02
      8 x          0.556100      0.556190     0.000090    Fractional   0.02
      8 y          0.294700      0.297631     0.002931    Fractional   0.99
      8 z          0.926300      0.926068     0.000232    Fractional   0.03
      9 x          0.064604      0.065885     0.001281    Fractional   1.98
      9 y          0.450997      0.452635     0.001638    Fractional   0.36
      9 z          0.678542      0.677803     0.000739    Fractional   0.11
     10 x          0.678543      0.677804     0.000739    Fractional   0.11
     10 y          0.064604      0.065886     0.001282    Fractional   1.98
     10 z          0.450997      0.452634     0.001637    Fractional   0.36
     11 x          0.450997      0.452635     0.001637    Fractional   0.36
     11 y          0.678543      0.677804     0.000739    Fractional   0.11
     11 z          0.064603      0.065885     0.001282    Fractional   1.98
     12 x          0.935389      0.935770     0.000381    Fractional   0.04
     12 y          0.548950      0.549021     0.000070    Fractional   0.01
     12 z          0.321492      0.323852     0.002360    Fractional   0.73
     13 x          0.321491      0.323851     0.002361    Fractional   0.73
     13 y          0.935390      0.935770     0.000380    Fractional   0.04
     13 z          0.548951      0.549022     0.000071    Fractional   0.01
     14 x          0.548950      0.549021     0.000071    Fractional   0.01
     14 y          0.321491      0.323851     0.002360    Fractional   0.73
     14 z          0.935390      0.935771     0.000380    Fractional   0.04
--------------------------------------------------------------------------------


  Time to end of optimisation =       5.5022 seconds


  Peak dynamic memory used =       1.89 MB 


  Timing analysis for GULP :

--------------------------------------------------------------------------------
  Task / Subroutine                                          Time (Seconds)
--------------------------------------------------------------------------------
  Calculation of reciprocal space energy and derivatives          0.1714
  Calculation of real space energy and derivatives                5.2828
  Sum of squares for fitting                                      0.0332
  Symmetry generation of equivalent positions                     0.0003
  Global summation overhead                                       0.0007
--------------------------------------------------------------------------------
  Total CPU time                                                  5.5022
--------------------------------------------------------------------------------


  Dump file written as ScCl3.grs


  Job Finished at 15:06.57 23rd March      2022                               

