LAMMPS (7 Aug 2019)
  using 1 OpenMP thread(s) per MPI task

# Input written to comply with LAMMPS 2017-08-11 00:00:00

# Atomic Configuration
units           metal
boundary        p p p
box             tilt large
atom_style      charge
read_data       triclinic_9x9x9.lmp
  orthogonal box = (0 0 0) to (93.6333 93.6333 93.6333)
  4 by 5 by 8 MPI processor grid
  reading atoms ...
  39366 atoms
  read_data CPU = 0.070204 secs
group           lithium type 1
12393 atoms in group lithium
group           scandium type 2
3645 atoms in group scandium
group           chloride type 3
23328 atoms in group chloride
variable        T1 equal 300
variable        dt equal 0.001

# Potential Setup
pair_style      buck/coul/long 12.0
pair_coeff      * * 0.0 1.0 0.0
pair_coeff      1 1    360.530000  0.161000   0.000000 # Li Li
pair_coeff      1 3    421.040000  0.344000   0.000000 # Li Cl
pair_coeff      3 3   1227.200000  0.321000  14.530000 # Cl Cl
pair_coeff      2 3  12131.350000  0.250700   0.000000 # Sc Cl

kspace_style    pppm 1e-05

# General Setup
timestep        ${dt}
timestep        0.001

# Thermodynamic Information Output
thermo_style    custom step temp epair emol etotal press lx ly lz fmax cpu cpuremain
thermo          1000

# Intial Atom Velocity
velocity        all create ${T1} 713713 dist gaussian rot yes
velocity        all create 300 713713 dist gaussian rot yes

# Stage 0: npt_equilibriation
restart         0
fix             int all npt aniso 1.0 1.0 $(1000*dt) temp ${T1} ${T1} $(100*dt)
fix             int all npt aniso 1.0 1.0 1 temp ${T1} ${T1} $(100*dt)
fix             int all npt aniso 1.0 1.0 1 temp 300 ${T1} $(100*dt)
fix             int all npt aniso 1.0 1.0 1 temp 300 300 $(100*dt)
fix             int all npt aniso 1.0 1.0 1 temp 300 300 0.10000000000000000555
run             50000
PPPM initialization ...
  using 12-bit tables for long-range coulomb (../kspace.cpp:323)
  G vector (1/distance) = 0.264753
  grid = 81 81 81
  stencil order = 5
  estimated absolute RMS force accuracy = 0.000184939
  estimated relative force accuracy = 1.28433e-05
  using double precision MKL FFT
  3d grid and FFT values/proc = 10557 4374
Neighbor list info ...
  update every 1 steps, delay 10 steps, check yes
  max neighbors/atom: 2000, page size: 100000
  master list distance cutoff = 14
  ghost atom cutoff = 14
  binsize = 7, bins = 14 14 14
  1 neighbor lists, perpetual/occasional/extra = 1 0 0
  (1) pair buck/coul/long, perpetual
      attributes: half, newton on
      pair build: half/bin/atomonly/newton
      stencil: half/bin/3d/newton
      bin: standard
Per MPI rank memory allocation (min/avg/max) = 4.13 | 4.213 | 4.586 Mbytes
Step Temp E_pair E_mol TotEng Press Lx Ly Lz Fmax CPU CPULeft 
       0          300   -239308.38            0   -237781.89   -7722.0771      93.6333      93.6333      93.6333    5.7883125            0            0 
    1000    322.97691   -274200.46            0   -272557.05   -450.18455    96.370217    100.35739    100.49483    3.1450029    6.6851552    327.57265 
    2000    296.19313   -274809.86            0   -273302.73   -92.347386    95.876518    100.02501    100.41743    3.1243105    13.536254    324.87012 
    3000    300.17674   -274956.37            0   -273428.97   -70.337093    95.815114    100.02693    100.32502    3.2995934    19.991696    313.20325 
    4000     296.9535   -275092.06            0   -273581.06    44.292212    95.714674    99.960699    100.25638    2.7739146    26.374623    303.30818 
    5000     301.3028    -275149.6            0   -273616.47   -172.42169    95.709843     99.83941    100.23046    2.9699102    33.042436    297.38193 
    6000    299.18169      -275205            0   -273682.66    54.855766    95.666621    99.902828    100.04507    2.7532447    39.323076    288.36923 
    7000    300.25685   -275242.05            0   -273714.24    -37.25749    95.709898    99.856371    100.04864    3.2588178    45.773571    281.18051 
    8000     298.1353   -275278.48            0   -273761.47    66.859838    95.699566    99.790364    99.974044    3.2123256    52.664599    276.48915 
    9000    302.02091   -275309.75            0   -273772.97    182.91843    95.645589    99.713888    99.992814    2.9877615    59.127787    269.35992 
   10000    299.78601   -275331.56            0   -273806.15   -166.81012    95.721191    99.755437    99.947437    2.9880058    65.545758    262.18304 
   11000    302.41163   -275345.35            0   -273806.58   -169.93729    95.673786    99.769751    99.938927    2.9514316    72.271018    256.23361 
   12000    296.37238   -275368.22            0   -273860.19    79.513484    95.606566    99.807696    99.905477    2.9195125    78.550687    248.74385 
   13000    301.83453   -275372.13            0    -273836.3    84.714783    95.536252     99.77813    99.956991    2.7714562    85.026583    241.99874 
   14000    299.36918      -275399            0   -273875.71    3.7754883    95.497094    99.805421    99.862614    2.9328857    91.962695     236.4755 
   15000    301.69167   -275391.86            0   -273856.75    108.72464    95.610308    99.735012    99.935499    3.2182186    98.461141    229.74266 
   16000     298.5163   -275425.68            0   -273906.73   -94.711837    95.574864    99.788764    99.871639     3.123047    104.85778    222.82278 
   17000    300.81061   -275400.57            0   -273869.95    104.56497    95.540228    99.650534    99.879608    3.4218955    111.60533    216.64564 
   18000    298.82652   -275436.36            0   -273915.83    46.674775    95.496071    99.696786    99.877072    3.0022235    117.86296    209.53415 
   19000    300.84904   -275425.77            0   -273894.95   -123.13013     95.56581    99.725188    99.799023    2.8297414    124.22038    202.67535 
   20000    299.53944   -275456.97            0   -273932.82   -43.828802    95.537026    99.726571    99.739934    3.1933644    131.17365    196.76048 
   21000    301.52638    -275458.6            0   -273924.33    6.8327962    95.529601    99.655728    99.775863    2.8143458    137.67921    190.12844 
   22000    298.85739   -275460.38            0   -273939.69    78.907831    95.554014    99.524821    99.793502    3.2795637    144.16134    183.47807 
   23000    299.83117   -275474.03            0   -273948.39    150.93807    95.467419    99.606191     99.78528      3.25941    150.88855    177.13004 
   24000    301.96918   -275472.51            0   -273935.99    96.075555    95.517848     99.52346    99.770273    3.1704456    157.00902    170.09311 
   25000    298.24995   -275479.98            0   -273962.39    58.763703    95.474459    99.623145    99.748971     3.107547    163.27304    163.27304 
   26000    298.95158   -275481.77            0   -273960.61    -264.0352    95.622484    99.641389    99.709921    3.1940832    170.17826    157.08762 
   27000    300.07674   -275486.43            0   -273959.54   -75.231819    95.487861    99.599678    99.748938    3.0284013    176.90969    150.70085 
   28000    299.88706   -275510.31            0   -273984.39    3.8350304    95.492827    99.537786    99.878187    2.9146479    183.12352    143.88276 
   29000    300.71643    -275498.8            0   -273968.66    39.245126    95.475999     99.44361    99.931007    2.8771887    190.06321    137.63198 
   30000    299.90711   -275513.65            0   -273987.63     92.83947    95.486603    99.537833    99.741807    3.2608157    196.22308    130.81538 
   31000    299.69625   -275505.86            0    -273980.9    119.38163    95.530374    99.489073    99.808632    3.3899594    202.41214    124.05905 
   32000    298.58126   -275525.75            0   -274006.47    149.14226    95.443149     99.39828    99.835167    3.3621386    209.21939    117.68591 
   33000    300.43185   -275517.04            0   -273988.34     70.75393    95.539233    99.416717    99.851167    3.5247819    215.91314    111.22798 
   34000    299.36971    -275537.4            0   -274014.11    182.09028    95.477783     99.45018    99.813896    2.9803743    222.16796    104.54963 
   35000    300.93602   -275538.27            0   -274007.01    62.275646    95.436511    99.507799    99.838724    2.9866788     228.9214    98.109171 
   36000    299.89112   -275539.38            0   -274013.43    191.14651    95.474602    99.528314    99.728053    2.7854943    235.19561    91.464958 
   37000    298.72326   -275544.85            0   -274024.85   -291.14996    95.545749    99.528726    99.811706     3.346355    241.44961    84.833648 
   38000    300.24092   -275548.79            0   -274021.07    40.613127    95.503393    99.472294    99.824764    3.2222806    248.28263    78.405042 
   39000    299.39032   -275551.99            0    -274028.6   -7.7954842    95.574442    99.510096    99.719842    2.6675901     255.1884    71.976215 
   40000    300.63977   -275557.46            0   -274027.71   -31.848816    95.631235    99.347988    99.840672    2.8912759    261.41448     65.35362 
   41000    299.16075   -275549.86            0   -274027.64    16.018157    95.517412    99.409055     99.75428    2.9805177    268.13364    58.858603 
   42000    298.67253   -275549.83            0   -274030.09   -26.626693    95.499599    99.429257    99.766539     3.224663    274.45803    52.277721 
   43000    298.95667   -275557.34            0   -274036.15    174.41628    95.503127    99.335819    99.809294    3.2384198    280.78562    45.709287 
   44000    301.13084   -275569.29            0   -274037.04    131.68268     95.51439    99.389073     99.73503     3.114649    287.59923    39.218077 
   45000    301.52784   -275559.43            0   -274025.16    4.6373531    95.411412    99.399178     99.90947    3.3198821    294.57605    32.730673 
   46000    297.11429   -275569.28            0   -274057.47   -85.855683    95.581135    99.479945    99.710797    3.0174937    300.81154    26.157526 
   47000    300.51195   -275562.13            0   -274033.03    101.72437     95.54835    99.472269    99.753391    3.5617383    307.41467    19.622213 
   48000    297.16894   -275574.55            0   -274062.46   -9.7830448    95.606117    99.385942    99.744994    3.3919604     313.9228    13.080117 
   49000     302.3732   -275570.25            0   -274031.68   -284.66652    95.606973    99.401005    99.789126    3.0353057    320.28544    6.5364376 
   50000    299.41965   -275580.32            0   -274056.78   -52.757715    95.588964    99.354595    99.759171    2.9704136    326.98478            0 
Loop time of 326.985 on 160 procs for 50000 steps with 39366 atoms

Performance: 13.212 ns/day, 1.817 hours/ns, 152.912 timesteps/s
98.9% CPU use with 160 MPI tasks x 1 OpenMP threads

MPI task timing breakdown:
Section |  min time  |  avg time  |  max time  |%varavg| %total
---------------------------------------------------------------
Pair    | 68.305     | 75.547     | 86.465     |  38.0 | 23.10
Kspace  | 172.7      | 183.87     | 191.54     |  24.7 | 56.23
Neigh   | 1.4519     | 1.5482     | 1.6884     |   3.7 |  0.47
Comm    | 29.631     | 30.555     | 31.209     |   6.2 |  9.34
Output  | 0.0032966  | 0.0033419  | 0.0045605  |   0.2 |  0.00
Modify  | 25.824     | 27.219     | 32.767     |  22.8 |  8.32
Other   |            | 8.244      |            |       |  2.52

Nlocal:    246.037 ave 266 max 226 min
Histogram: 2 6 14 25 21 41 27 16 6 2
Nghost:    3933.68 ave 3981 max 3871 min
Histogram: 2 0 8 14 32 40 24 18 14 8
Neighs:    58651.2 ave 67492 max 52893 min
Histogram: 13 14 24 30 34 24 9 9 2 1

Total # of neighbors = 9384196
Ave neighs/atom = 238.383
Neighbor list builds = 1216
Dangerous builds = 6

# Stage 1: nvt_equilibriation
unfix           int
restart         0
fix             int all nvt temp ${T1} ${T1} $(100*dt)
fix             int all nvt temp 300 ${T1} $(100*dt)
fix             int all nvt temp 300 300 $(100*dt)
fix             int all nvt temp 300 300 0.10000000000000000555
run             6000000
PPPM initialization ...
  using 12-bit tables for long-range coulomb (../kspace.cpp:323)
  G vector (1/distance) = 0.267308
  grid = 90 90 90
  stencil order = 5
  estimated absolute RMS force accuracy = 0.000136688
  estimated relative force accuracy = 9.49244e-06
  using double precision MKL FFT
  3d grid and FFT values/proc = 13050 4968
Per MPI rank memory allocation (min/avg/max) = 4.365 | 4.463 | 4.82 Mbytes
Step Temp E_pair E_mol TotEng Press Lx Ly Lz Fmax CPU CPULeft 
   50000    299.41965   -275580.42            0   -274056.88   -53.804589    95.588964    99.354595    99.759171    2.9703886            0            0 
   51000     297.5038   -275572.06            0   -274058.27    58.115813    95.588964    99.354595    99.759171    3.3318232     6.936367    41611.272 
   52000    300.70644    -275577.3            0   -274047.21    2.8204899    95.588964    99.354595    99.759171    3.4490362     13.49089    40459.182 
   53000    299.93855   -275582.19            0   -274056.01    133.33421    95.588964    99.354595    99.759171    3.3309213    20.148469    40276.791 
   54000     299.3365   -275579.25            0   -274056.13   -44.774722    95.588964    99.354595    99.759171    3.0172329    26.757146    40108.963 
   55000    302.68684   -275584.15            0   -274043.98   -214.59271    95.588964    99.354595    99.759171    2.9805929    33.141725    39736.929 
   56000    301.12967   -275585.31            0   -274053.07   -123.69203    95.588964    99.354595    99.759171    2.9830531    39.879508    39839.629 
   57000    301.68429   -275582.64            0   -274047.57   -105.42713    95.588964    99.354595    99.759171    3.5878767    46.840846    40102.457 
   58000    299.64592   -275600.22            0   -274075.52   -161.32689    95.588964    99.354595    99.759171    2.6800832    53.391203    39990.012 
   59000    300.72387   -275597.72            0   -274067.53   -198.33415    95.588964    99.354595    99.759171    3.1495715    59.956698    39911.176 
   60000    300.60054    -275585.9            0   -274056.35     13.27904    95.588964    99.354595    99.759171    3.4329656    66.551597    39864.407 
   61000    300.11474   -275606.38            0    -274079.3   -32.121434    95.588964    99.354595    99.759171    2.8156986    72.912894    39697.757 
   62000    302.76914   -275598.81            0   -274058.22   -141.46743    95.588964    99.354595    99.759171    3.2177251    79.609416    39725.099 
   63000    298.29303   -275607.19            0   -274089.38   -209.74338    95.588964    99.354595    99.759171    2.9672091    86.576023    39871.589 
   64000    301.44253   -275594.47            0   -274060.63   -126.16915    95.588964    99.354595    99.759171    3.3822135    93.075582     39796.46 
   65000    300.44108   -275605.06            0   -274076.32   -268.03581    95.588964    99.354595    99.759171    2.9300028     99.63506    39754.389 
   66000    301.51357   -275604.62            0   -274070.42   -235.77775    95.588964    99.354595    99.759171    2.9955099    106.35323    39776.109 
   67000    301.63749   -275597.81            0   -274062.98   -317.35412    95.588964    99.354595    99.759171    3.2846509    112.73018    39674.392 
   68000    299.12128   -275612.93            0    -274090.9   -401.76366    95.588964    99.354595    99.759171     3.225868    119.33939    39660.457 
   69000    301.82692   -275606.59            0    -274070.8   -268.15198    95.588964    99.354595    99.759171    3.4563488    126.27401    39749.731 
   70000    301.89546   -275624.52            0   -274088.38   -316.71894    95.588964    99.354595    99.759171     2.880495    132.80358    39708.271 
   71000    302.28959   -275604.39            0   -274066.25    -257.3052    95.588964    99.354595    99.759171    3.1458693    139.27592    39653.845 
   72000    300.45248      -275613            0    -274084.2    -414.8823    95.588964    99.354595    99.759171    3.0719587    146.15968    39715.571 
   73000    299.34868   -275619.51            0   -274096.32   -148.82904    95.588964    99.354595    99.759171    2.8706309    152.57256    39648.965 
   74000     300.1994   -275613.87            0   -274086.36   -286.17439    95.588964    99.354595    99.759171    3.1444806    159.20075    39640.987 
   75000    300.55236   -275626.35            0   -274097.04   -138.22749    95.588964    99.354595    99.759171    2.8983857    166.17854    39716.671 
   76000    299.21206   -275629.93            0   -274107.45   -301.77065    95.588964    99.354595    99.759171    3.5849749    172.70869    39683.144 
   77000    300.80541   -275606.97            0   -274076.37   -449.45789    95.588964    99.354595    99.759171    3.0519412    179.31423    39668.292 
   78000    297.79403   -275619.43            0   -274104.15   -123.00252    95.588964    99.354595    99.759171    3.0090772    186.02148    39675.725 
   79000    301.70211   -275617.79            0   -274082.63   -406.79836    95.588964    99.354595    99.759171     3.477776     192.3788    39610.132 
   80000    300.64827   -275615.02            0   -274085.22   -428.31242    95.588964    99.354595    99.759171    3.0891895    198.96946    39594.923 
   81000    300.48445   -275632.12            0   -274103.16   -386.06947    95.588964    99.354595    99.759171    2.9981136    205.98326    39661.745 
   82000    299.21606   -275626.26            0   -274103.75   -263.28344    95.588964    99.354595    99.759171    3.0301118    212.57834    39645.861 
   83000    299.58855   -275631.66            0   -274107.26   -525.26483    95.588964    99.354595    99.759171    3.3522481    219.08995    39615.446 
   84000    299.69843   -275642.56            0    -274117.6   -437.72644    95.588964    99.354595    99.759171    3.4524936    225.81957    39624.693 
   85000    301.08194   -275628.48            0   -274096.48   -341.82304    95.588964    99.354595    99.759171    2.8692387    232.11963    39559.817 
   86000    297.36707   -275627.83            0   -274114.73   -450.25379    95.588964    99.354595    99.759171    2.9501968    238.71025    39546.331 
   87000    299.21715   -275641.13            0   -274118.61   -447.47868    95.588964    99.354595    99.759171    3.0755491    245.67431    39593.403 
   88000    301.95957   -275645.35            0   -274108.89   -540.39201    95.588964    99.354595    99.759171    3.1256248    252.20243    39569.233 
   89000    298.19321   -275640.34            0   -274123.04   -450.03376    95.588964    99.354595    99.759171    2.8279666    258.68924    39539.655 
   90000    302.41083   -275646.29            0   -274107.52   -430.69857    95.588964    99.354595    99.759171    2.9609307      265.494    39558.607 
   91000    300.15048   -275650.65            0   -274123.38   -435.47916    95.588964    99.354595    99.759171    2.7554628    271.78401    39501.486 
   92000    300.55102   -275643.85            0   -274114.54   -589.82117    95.588964    99.354595    99.759171    3.5517084    278.29273    39477.812 
   93000    299.91589   -275645.02            0   -274118.95   -360.13741    95.588964    99.354595    99.759171    3.4573891    285.31841    39526.554 
   94000    301.91084   -275642.06            0   -274105.84   -318.64828    95.588964    99.354595    99.759171    2.9110651    291.88832    39511.065 
   95000    299.22953   -275655.89            0   -274133.32   -303.19242    95.588964    99.354595    99.759171    3.1587402    298.36977    39484.266 
   96000    301.80001   -275656.98            0   -274121.32   -421.21711    95.588964    99.354595    99.759171    2.9422783    305.20016    39503.517 
   97000    298.96999   -275660.03            0   -274138.78   -500.78771    95.588964    99.354595    99.759171    2.9264955    311.62225    39469.941 
   98000    301.37731   -275663.27            0   -274129.76   -392.48916    95.588964    99.354595    99.759171     3.136902    318.11005    39445.647 
   99000    301.31181   -275649.68            0    -274116.5   -396.16253    95.588964    99.354595    99.759171    3.2255774    325.13889    39487.787 
  100000    300.16172   -275655.61            0   -274128.29   -335.65686    95.588964    99.354595    99.759171    3.1059668    331.61594    39462.297 
  101000    301.75147   -275649.77            0   -274114.36   -345.40923    95.588964    99.354595    99.759171    3.1214377    338.15799    39445.135 
  102000    299.04118   -275648.01            0   -274126.39   -389.90645    95.588964    99.354595    99.759171    3.0459481    344.88625    39449.681 
  103000    300.86856   -275649.05            0   -274118.13   -377.41276    95.588964    99.354595    99.759171    3.4302455    351.31866    39420.606 
  104000    299.22099   -275643.64            0    -274121.1   -661.75782    95.588964    99.354595    99.759171    3.1152737    357.83251    39401.335 
  105000    298.49286    -275655.3            0   -274136.47   -524.92464    95.588964    99.354595    99.759171    2.9676349    364.82444    39434.205 
  106000    298.90522   -275643.32            0   -274122.39     -621.116    95.588964    99.354595    99.759171    3.0982358     371.3537    39416.543 
  107000    300.95741   -275662.88            0   -274131.51   -636.02759    95.588964    99.354595    99.759171    3.1749614    377.81892    39392.594 
  108000    298.91654    -275660.9            0   -274139.92   -764.25219    95.588964    99.354595    99.759171    3.1785886    384.56861    39398.391 
  109000    299.42053   -275662.28            0   -274138.73   -618.12896    95.588964    99.354595    99.759171    3.0336972    390.94206    39365.878 
  110000    299.95603   -275657.93            0   -274131.66   -598.46196    95.588964    99.354595    99.759171    2.8886951    397.50548    39353.043 
  111000    300.11677   -275650.67            0   -274123.58   -551.13098    95.588964    99.354595    99.759171    2.9929784    404.53083    39385.387 
  112000    298.88031    -275664.3            0    -274143.5    -518.0105    95.588964    99.354595    99.759171    2.8017945    411.13217    39375.852 
  113000    298.09859   -275664.94            0   -274148.12   -655.93796    95.588964    99.354595    99.759171    4.1306867    417.57438    39351.414 
  114000    298.14587   -275668.15            0   -274151.09   -487.22362    95.588964    99.354595    99.759171    2.7993006    424.35195    39358.644 
  115000    301.53052    -275660.2            0   -274125.92   -537.07284    95.588964    99.354595    99.759171    3.0625606    430.70056    39326.275 
  116000    299.66855   -275659.32            0   -274134.51   -375.25877    95.588964    99.354595    99.759171     2.870992    437.19309    39307.633 
  117000    300.29183   -275672.35            0   -274144.37   -665.99836    95.588964    99.354595    99.759171    3.2109671    444.27655    39341.684 
  118000    300.21584   -275659.46            0   -274131.86   -548.59028    95.588964    99.354595    99.759171    2.9239404     450.8737      39332.1 
  119000    300.49268   -275682.63            0   -274153.63   -592.35059    95.588964    99.354595    99.759171    2.9681324    457.32491    39310.058 
  120000    301.70999   -275668.59            0   -274133.39   -620.23634    95.588964    99.354595    99.759171    2.9714981    464.16499    39321.406 
  121000    300.63381   -275670.48            0   -274140.76   -648.68142    95.588964    99.354595    99.759171    3.3148846    470.49381    39289.546 
  122000     300.5674   -275668.74            0   -274139.36   -474.13466    95.588964    99.354595    99.759171    3.1382586    476.91721    39266.184 
  123000    301.38221   -275671.74            0   -274138.21   -569.86284    95.588964    99.354595    99.759171    2.9008343    483.94256    39292.158 
  124000    301.21042    -275661.2            0   -274128.54   -465.80558    95.588964    99.354595    99.759171    3.0126682    490.57089    39285.447 
  125000    301.18873   -275672.99            0   -274140.44   -564.30596    95.588964    99.354595    99.759171    3.1459942    497.01302    39264.028 
  126000    299.71603   -275680.77            0   -274155.72   -531.84597    95.588964    99.354595    99.759171    3.4552732    503.80265    39270.091 
  127000    298.05656   -275673.58            0   -274156.97    -755.8882    95.588964    99.354595    99.759171    3.3108662    510.19222    39245.046 
  128000    301.21865   -275666.57            0   -274133.87    -464.2607    95.588964    99.354595    99.759171    3.5069088    516.60065    39221.911 
  129000    301.21567   -275674.75            0   -274142.06   -599.94952    95.588964    99.354595    99.759171    3.0683681    523.58623    39242.457 
  130000    299.60748   -275680.29            0   -274155.79   -687.33702    95.588964    99.354595    99.759171    2.9481436    530.27643    39240.456 
  131000     299.2623   -275679.85            0    -274157.1   -539.43612    95.588964    99.354595    99.759171    3.3485008    536.75831    39223.117 
  132000     300.4093   -275675.57            0   -274146.99   -689.03696    95.588964    99.354595    99.759171      2.99507    543.55502    39228.764 
  133000    299.57877   -275671.11            0   -274146.75   -445.13104    95.588964    99.354595    99.759171    2.8422554    549.92869    39203.952 
  134000    300.81494   -275680.64            0   -274149.99    -438.2287    95.588964    99.354595    99.759171    3.0834872    556.33519    39181.892 
  135000    300.28901   -275685.04            0   -274157.08   -663.11224    95.588964    99.354595    99.759171    2.9468944    563.31643    39200.196 
  136000     300.2126   -275683.98            0    -274156.4   -520.65839    95.588964    99.354595    99.759171    3.4198089    569.99054    39196.792 
  137000    301.22076   -275693.08            0   -274160.37   -664.33273    95.588964    99.354595    99.759171    2.8223877    576.43369    39177.614 
  138000    300.97579   -275675.02            0   -274143.56    -474.2088    95.588964    99.354595    99.759171    2.6698297    583.21386    39181.367 
  139000    300.70133   -275678.66            0   -274148.59    -492.0615    95.588964    99.354595    99.759171    3.0551987    589.64072    39161.419 
  140000    300.77888   -275694.06            0    -274163.6   -461.22201    95.588964    99.354595    99.759171    2.7057885    595.97227    39135.512 
  141000    300.74185   -275682.63            0   -274152.36    -617.1012    95.588964    99.354595    99.759171    3.0550261    603.00902    39155.827 
  142000    298.49824   -275679.47            0   -274160.62    -536.9302    95.588964    99.354595    99.759171    2.8313447    609.80699    39160.214 
  143000    298.56909   -275677.87            0   -274158.65   -575.03523    95.588964    99.354595    99.759171    3.2032138    616.13161    39134.295 
  144000     300.3075   -275689.45            0   -274161.38   -671.57038    95.588964    99.354595    99.759171    3.1008713    622.90896    39137.238 
  145000    298.86097   -275690.59            0   -274169.89   -498.30259    95.588964    99.354595    99.759171     3.147622    629.39055    39121.592 
  146000    298.35785   -275699.82            0   -274181.68   -581.36792    95.588964    99.354595    99.759171    2.9541504    635.75048    39098.655 
  147000    300.44214   -275683.69            0   -274154.95   -601.60161    95.588964    99.354595    99.759171    3.8404018    642.69842    39111.843 
  148000    300.49188   -275691.31            0   -274162.31     -511.573    95.588964    99.354595    99.759171    2.9559577    649.47041    39114.024 
  149000     300.9315   -275693.09            0   -274161.86   -530.88132    95.588964    99.354595    99.759171    3.5535592    655.84728    39092.473 
  150000    298.79201   -275675.45            0    -274155.1   -423.90962    95.588964    99.354595    99.759171    3.4199911    662.62335    39094.778 
  151000    300.96811   -275699.84            0   -274168.42   -514.52373    95.588964    99.354595    99.759171    2.6458859    669.10996    39079.997 
  152000    298.85621   -275690.16            0   -274169.48   -643.90114    95.588964    99.354595    99.759171    3.4531373    675.48263     39058.79 
  153000    298.03567   -275679.43            0   -274162.93   -718.88431    95.588964    99.354595    99.759171     2.990685    682.40796    39069.512 
  154000    297.45884    -275692.6            0   -274179.04   -513.22607    95.588964    99.354595    99.759171    2.8919088    689.23448    39074.293 
  155000    297.56802   -275676.04            0   -274161.92   -753.17052    95.588964    99.354595    99.759171    3.2255079    695.54285    39049.763 
  156000    302.18386   -275686.24            0   -274148.63    -654.8205    95.588964    99.354595    99.759171    3.4131443    702.26822    39048.763 
  157000    299.64776   -275683.01            0   -274158.31   -670.75369    95.588964    99.354595    99.759171    3.1408373    708.76802    39035.233 
  158000    298.77489   -275681.85            0   -274161.58   -570.17738    95.588964    99.354595    99.759171    2.9576993    715.14324    39015.037 
  159000    300.21091   -275680.03            0   -274152.46    -585.4328    95.588964    99.354595    99.759171    3.1707448    722.06562    39024.666 
  160000     301.1026   -275707.59            0   -274175.48   -528.53517    95.588964    99.354595    99.759171    3.4473534    728.91834    39030.264 
  161000    300.44328   -275682.49            0   -274153.74   -656.43699    95.588964    99.354595    99.759171    2.9549759     735.2312    39006.996 
  162000    298.84723   -275705.24            0   -274184.61   -632.91565    95.588964    99.354595    99.759171    3.3260861     741.8262    38998.863 
  163000    300.49201   -275687.87            0   -274158.87     -772.616    95.588964    99.354595    99.759171    3.0548719    748.55823    38997.897 
  164000    299.11849   -275690.45            0   -274168.44   -579.94188    95.588964    99.354595    99.759171    2.9425619    754.91387    38977.395 
  165000    300.03585   -275697.13            0   -274170.45   -602.48402    95.588964    99.354595    99.759171    3.0018113    761.81872    38985.245 
  166000    298.99362   -275703.59            0   -274182.21   -666.45837    95.588964    99.354595    99.759171    2.8770509    768.67368     38990.31 
  167000    302.16105   -275691.64            0   -274154.15   -498.27917    95.588964    99.354595    99.759171    2.8812791    775.00521    38968.852 
  168000    299.14514   -275687.94            0   -274165.79   -678.77259    95.588964    99.354595    99.759171    3.1473556    781.73296    38967.401 
  169000    301.05334   -275710.42            0   -274178.56   -620.88209    95.588964    99.354595    99.759171    3.0737808    788.28391    38957.123 
  170000    301.35823   -275696.64            0   -274163.23   -657.77639    95.588964    99.354595    99.759171    3.4161588    794.61324    38936.049 
  171000    297.32413   -275700.51            0   -274187.63    -821.1634    95.588964    99.354595    99.759171    3.1573072    801.48255    38941.454 
  172000    299.73372   -275691.69            0   -274166.54    -571.6362    95.588964    99.354595    99.759171     3.162956    808.51865    38954.694 
  173000    301.28729   -275698.14            0   -274165.09   -612.01389    95.588964    99.354595    99.759171    3.2106308    814.89194    38935.935 
  174000    297.82496   -275696.48            0   -274181.05   -523.98617    95.588964    99.354595    99.759171    2.9727511    821.57458    38932.034 
  175000    301.06576      -275690            0   -274158.08   -527.64571    95.588964    99.354595    99.759171    3.8297254    828.12741    38921.988 
  176000     300.1289   -275689.22            0   -274162.07   -514.02951    95.588964    99.354595    99.759171    3.0215801     834.5137    38904.234 
  177000    300.36053   -275703.63            0    -274175.3   -450.04343    95.588964    99.354595    99.759171    3.0526646    841.23179    38902.002 
  178000    300.20898   -275706.84            0   -274179.28   -622.95093    95.588964    99.354595    99.759171    3.4120572    848.06655    38905.053 
  179000    299.94636   -275707.46            0   -274181.23   -605.28654    95.588964    99.354595    99.759171    2.9299487    854.43711    38886.824 
  180000    301.21223   -275700.55            0   -274167.89   -629.23597    95.588964    99.354595    99.759171    2.7786275    861.13541    38883.576 
  181000    299.14837   -275696.51            0   -274174.34   -468.11847    95.588964    99.354595    99.759171    2.9545487    867.60781    38870.155 
  182000    298.45766   -275697.52            0   -274178.87   -414.33389    95.588964    99.354595    99.759171    3.0494981    873.97134    38851.999 
  183000    301.10689   -275694.18            0   -274162.05   -723.67304    95.588964    99.354595    99.759171    2.9478821    880.68378    38849.411 
  184000    297.41807   -275700.43            0   -274187.07    -410.5974    95.588964    99.354595    99.759171    2.9637089     887.5354    38852.856 
  185000    300.39786   -275699.35            0   -274170.83   -492.92487    95.588964    99.354595    99.759171    3.1886218    893.98909     38838.86 
  186000    301.17313   -275704.42            0   -274171.95   -637.05961    95.588964    99.354595    99.759171    3.3364034    900.62247    38832.722 
  187000    300.59734   -275712.51            0   -274182.98   -652.67109    95.588964    99.354595    99.759171    2.9159204    907.11383    38820.499 
  188000    300.28998   -275702.19            0   -274174.22    -719.3905    95.588964    99.354595    99.759171    3.3597384    913.40565    38799.884 
  189000    300.52607   -275709.09            0   -274179.92   -469.23072    95.588964    99.354595    99.759171    3.3713482    920.07664    38795.462 
  190000    300.93207   -275705.34            0    -274174.1   -574.81457    95.588964    99.354595    99.759171      3.20802     926.9716    38800.383 
  191000    299.52911   -275706.39            0   -274182.28   -720.55961    95.588964    99.354595    99.759171    3.4353406    933.53466    38791.344 
  192000    299.67837   -275717.89            0   -274193.03   -699.92045    95.588964    99.354595    99.759171       3.0292    940.08709    38781.903 
  193000    299.20417   -275697.06            0   -274174.62   -718.63828    95.588964    99.354595    99.759171    2.8372088    946.65228    38773.024 
  194000    297.02173   -275703.92            0   -274192.58    -639.5979    95.588964    99.354595    99.759171    3.5534664    953.00614    38755.583 
  195000    300.96357   -275708.96            0   -274177.56     -557.343    95.588964    99.354595    99.759171    3.0303901    959.70507    38752.229 
  196000    301.09918   -275712.24            0   -274180.15   -686.46538    95.588964    99.354595    99.759171    3.3188657    966.61167    38757.156 
  197000    301.51277   -275704.05            0   -274169.85     -658.156    95.588964    99.354595    99.759171    3.3212462    973.04025    38742.888 
  198000    300.20231   -275712.31            0   -274184.78   -655.37887    95.588964    99.354595    99.759171    3.5969813    979.54451     38731.72 
  199000    299.70078   -275721.88            0   -274196.91    -790.5954    95.588964    99.354595    99.759171    3.4162488    986.17006    38725.376 
  200000    300.71334   -275702.89            0   -274172.76   -639.41834    95.588964    99.354595    99.759171    3.2793979    992.54812    38709.377 
  201000    299.70758   -275708.53            0   -274183.52   -714.24982    95.588964    99.354595    99.759171    3.5890761     999.2394    38705.638 
  202000    302.24533   -275720.17            0   -274182.25   -631.59735    95.588964    99.354595    99.759171    2.8185883    1006.1906    38711.859 
  203000    300.26237   -275698.59            0   -274170.76   -661.87469    95.588964    99.354595    99.759171    3.4630632    1012.6712    38699.925 
  204000    300.35719   -275712.06            0   -274183.74   -798.62693    95.588964    99.354595    99.759171    3.1376322     1019.239    38691.372 
  205000    299.07877   -275705.17            0   -274183.36   -828.15954    95.588964    99.354595    99.759171    3.2841375    1025.9423    38687.955 
  206000    299.46662   -275710.67            0   -274186.88   -550.24748    95.588964    99.354595    99.759171    3.4040066    1032.2881    38671.102 
  207000    301.07634   -275703.34            0   -274171.36   -717.92845    95.588964    99.354595    99.759171    2.9176217    1038.8678    38663.086 
  208000    298.79438   -275713.82            0   -274193.45   -642.98178    95.588964    99.354595    99.759171    3.4292308    1045.8114    38668.544 
  209000    301.07172   -275702.16            0   -274170.21   -678.88674    95.588964    99.354595    99.759171    3.0148145    1052.3233    38657.989 
  210000    299.28054   -275713.32            0   -274190.48   -823.70992    95.588964    99.354595    99.759171    3.4124558    1058.7948     38646.01 
  211000    300.85761   -275715.03            0   -274184.17   -737.17888    95.588964    99.354595    99.759171    3.0736803    1065.5346     38643.83 
  212000     301.7579   -275699.96            0   -274164.51     -713.158    95.588964    99.354595    99.759171     3.008584    1071.8423    38626.022 
  213000    300.30737   -275721.51            0   -274193.45    -850.4328    95.588964    99.354595    99.759171    3.2634657    1078.3659    38616.086 
  214000    302.32872   -275707.96            0   -274169.62   -855.97516    95.588964    99.354595    99.759171    2.9677241    1085.3053    38620.987 
  215000    301.45012   -275717.29            0   -274183.41   -839.31808    95.588964    99.354595    99.759171    3.0543461    1091.8934     38613.32 
  216000    297.85569   -275707.83            0   -274192.25   -619.05878    95.588964    99.354595    99.759171    2.8334097    1098.3003    38599.303 
  217000    299.80991   -275710.16            0   -274184.63   -854.22672    95.588964    99.354595    99.759171    2.9442338    1105.0443    38597.146 
  218000    301.94075   -275711.73            0   -274175.35   -634.15477    95.588964    99.354595    99.759171    3.0834371    1111.4205     38582.17 
  219000    299.25847   -275720.13            0   -274197.41   -478.03999    95.588964    99.354595    99.759171    2.9852754    1117.8992    38570.829 
  220000    299.35702   -275720.31            0   -274197.08   -685.36827    95.588964    99.354595    99.759171     2.979058    1124.9261    38578.348 
  221000    300.71539   -275707.14            0      -274177    -389.1947    95.588964    99.354595    99.759171    3.2921066     1131.516      38570.8 
  222000    300.17617   -275720.48            0   -274193.08   -832.23218    95.588964    99.354595    99.759171    3.4591394     1138.003    38559.777 
  223000    298.41151   -275718.38            0   -274199.97   -547.48583    95.588964    99.354595    99.759171    3.6090874      1144.78    38558.574 
  224000    298.93342   -275713.42            0   -274192.35   -721.64605    95.588964    99.354595    99.759171    3.1002162     1151.139     38543.31 
  225000    298.86938   -275719.48            0   -274198.73   -876.93051    95.588964    99.354595    99.759171    3.4180298    1157.5302     38529.22 
  226000    301.04923   -275718.28            0   -274186.44     -612.746    95.588964    99.354595    99.759171    3.1784833    1164.5671    38536.582 
  227000    301.25196   -275723.81            0   -274190.94   -719.10343    95.588964    99.354595    99.759171    2.8481631    1171.2117     38530.88 
  228000     300.7548    -275718.9            0   -274188.56   -902.45767    95.588964    99.354595    99.759171    2.9896185    1177.6433    38518.199 
  229000    300.16775   -275716.88            0   -274189.53     -679.361    95.588964    99.354595    99.759171    3.5825249    1184.3978    38516.087 
  230000    300.49417   -275717.99            0   -274188.98    -773.2099    95.588964    99.354595    99.759171    3.7364432    1190.8177    38503.105 
  231000    301.72962   -275722.67            0   -274187.37   -798.28536    95.588964    99.354595    99.759171    2.6414354    1197.3033     38492.31 
  232000    300.67944   -275720.45            0    -274190.5   -665.88969    95.588964    99.354595    99.759171    3.1236696    1204.3434    38499.287 
  233000    298.34674   -275722.96            0   -274204.87    -656.4177    95.588964    99.354595    99.759171     2.974531    1210.9484    38492.279 
  234000    301.62523   -275708.74            0   -274173.98    -654.6492    95.588964    99.354595    99.759171    3.6219434    1217.2886    38476.906 
  235000    298.46912   -275716.93            0   -274198.23   -815.62637    95.588964    99.354595    99.759171    2.8900132    1224.0939    38476.249 
  236000    299.87652   -275713.08            0   -274187.22   -848.83638    95.588964    99.354595    99.759171    3.0211745    1230.4662    38461.993 
  237000    297.60427   -275716.98            0   -274202.67   -680.84262    95.588964    99.354595    99.759171    2.9142896    1236.8497    38448.168 
  238000    302.76971   -275718.46            0   -274177.87   -832.83495    95.588964    99.354595    99.759171    2.9643922    1243.8568    38453.699 
  239000    299.61312   -275718.68            0   -274194.15   -1002.9689    95.588964    99.354595    99.759171    2.6949015     1250.467    38446.898 
  240000    300.54884    -275739.2            0   -274209.91   -662.22463    95.588964    99.354595    99.759171    3.0897159    1256.8835    38434.175 
  241000    298.67408   -275711.03            0   -274191.28   -807.90359    95.588964    99.354595    99.759171    2.9431095    1263.7222    38434.359 
  242000    298.34509   -275718.65            0   -274200.57    -938.6483    95.588964    99.354595    99.759171    3.0776013    1270.1155    38420.993 
  243000    299.99758   -275719.88            0   -274193.39    -750.6946    95.588964    99.354595    99.759171    2.8231968    1276.4129    38404.818 
  244000     299.8855   -275736.57            0   -274210.65    -868.9461    95.588964    99.354595    99.759171    3.1896938    1283.3759    38408.662 
  245000    301.53547    -275714.1            0   -274179.79   -813.49856    95.588964    99.354595    99.759171    2.9509635    1290.0146    38402.742 
  246000    302.43703   -275726.03            0   -274187.13   -607.21686    95.588964    99.354595    99.759171    3.1851129    1296.4061    38389.495 
  247000    298.99719   -275721.47            0   -274200.07   -595.21775    95.588964    99.354595    99.759171    3.4357659    1303.1384    38386.356 
  248000    300.33507   -275724.67            0   -274196.46   -685.21596    95.588964    99.354595    99.759171    2.9884724    1309.6157    38375.709 
  249000    299.65156   -275737.52            0   -274212.79   -854.96448    95.588964    99.354595    99.759171    3.2508431    1315.9432    38360.738 
  250000    301.39384   -275725.14            0   -274191.55   -874.57349    95.588964    99.354595    99.759171    3.0976587    1322.8787    38363.482 
  251000    301.45104   -275721.55            0   -274187.66   -798.67863    95.588964    99.354595    99.759171    3.1427129    1329.6037    38360.058 
  252000    298.96742   -275733.25            0      -274212    -763.5897    95.588964    99.354595    99.759171    2.9731756    1335.9449    38345.587 
  253000    300.22868   -275721.94            0   -274194.28   -728.73573    95.588964    99.354595    99.759171    3.1978901    1342.6326    38341.088 
  254000    297.60745   -275719.09            0   -274204.77   -1092.6477    95.588964    99.354595    99.759171    3.1156024    1349.2958    38335.876 
  255000    299.25891   -275718.13            0   -274195.41   -605.10833    95.588964    99.354595    99.759171    2.9710085    1355.5577    38319.301 
  256000    302.48559   -275720.98            0   -274181.84   -615.78216    95.588964    99.354595    99.759171    2.9709036    1362.4984    38321.921 
  257000    299.77033   -275729.75            0   -274204.42   -913.47271    95.588964    99.354595    99.759171    3.2175773    1369.2812     38320.03 
  258000    302.68063   -275726.37            0   -274186.24   -968.34273    95.588964    99.354595    99.759171    2.8667172    1375.6535    38306.659 
  259000    299.99268   -275723.25            0   -274196.79   -808.27469    95.588964    99.354595    99.759171    3.0279156    1382.4032    38303.813 
  260000    301.47412   -275723.52            0   -274189.52   -867.50099    95.588964    99.354595    99.759171    3.5171648    1388.8246    38291.878 
  261000    299.11865   -275732.46            0   -274210.45   -1003.0115    95.588964    99.354595    99.759171    2.8219994     1395.198     38278.68 
  262000    300.21356   -275719.94            0   -274192.35   -684.32289    95.588964    99.354595    99.759171    3.0945941    1401.9296    38275.322 
  263000    298.26114   -275732.79            0   -274215.14   -853.26052    95.588964    99.354595    99.759171    2.9719125    1408.7518    38274.397 
  264000    300.33153   -275733.58            0    -274205.4   -741.22091    95.588964    99.354595    99.759171    3.2371572    1415.0924    38260.395 
  265000    299.38998   -275719.44            0   -274196.04   -666.17853    95.588964    99.354595    99.759171    3.5363887    1421.7926    38256.141 
  266000    299.15825   -275716.31            0    -274194.1   -717.92991    95.588964    99.354595    99.759171    3.2692011    1428.3085    38246.927 
  267000    299.34287   -275731.03            0   -274207.88   -893.90196    95.588964    99.354595    99.759171    3.3926004    1434.5843    38231.341 
  268000    300.61153    -275719.4            0   -274189.79   -735.47731    95.588964    99.354595    99.759171    3.0563254    1441.5498    38234.133 
  269000     299.7744   -275723.71            0   -274198.36   -768.64297    95.588964    99.354595    99.759171    3.1838011    1448.3559    38232.627 
  270000    298.09276   -275730.19            0    -274213.4   -920.72953    95.588964    99.354595    99.759171    3.0504717    1454.7051    38219.071 
  271000    300.53571   -275726.83            0    -274197.6   -713.70276    95.588964    99.354595    99.759171     2.973431    1461.4033    38214.704 
  272000    301.39448   -275736.84            0   -274203.25   -1002.0689    95.588964    99.354595    99.759171    2.9684736    1467.9045    38205.191 
  273000     300.6545   -275721.84            0   -274192.01   -979.28738    95.588964    99.354595    99.759171    2.7122716    1474.2842    38192.555 
  274000    299.97345   -275737.23            0   -274210.86   -884.91017    95.588964    99.354595    99.759171    2.8686721    1481.2054     38193.94 
  275000    300.37717   -275728.54            0   -274200.13   -805.20987    95.588964    99.354595    99.759171    4.3691586    1488.0469    38193.204 
  276000    302.15657   -275724.01            0   -274186.54   -783.35278    95.588964    99.354595    99.759171    3.3358997     1494.425    38180.576 
  277000     299.4813   -275736.29            0   -274212.43   -640.53914    95.588964    99.354595    99.759171    3.1401156    1501.0822    38175.101 
  278000    298.29496   -275729.44            0   -274211.62   -958.82653    95.588964    99.354595    99.759171    2.8446951    1507.6534    38167.436 
  279000    299.22469   -275730.39            0   -274207.83    -917.2247    95.588964    99.354595    99.759171    3.1138728    1514.0421    38155.184 
  280000    300.14349   -275718.03            0    -274190.8   -795.30249    95.588964    99.354595    99.759171    3.0993593    1520.7705    38151.503 
  281000    298.91051   -275725.32            0   -274204.37   -904.32826    95.588964    99.354595    99.759171    2.7441126    1527.6653    38151.953 
  282000    299.94258   -275715.04            0   -274188.83    -783.9205    95.588964    99.354595    99.759171    2.7224793    1534.0977    38140.843 
  283000    300.14474   -275726.59            0   -274199.35   -829.71275    95.588964    99.354595    99.759171    3.2978039    1540.7325    38134.782 
  284000    299.49091   -275729.43            0   -274205.53   -893.30289    95.588964    99.354595    99.759171    3.6291078    1547.2964    38126.971 
  285000    299.83057   -275726.65            0   -274201.01   -925.75293    95.588964    99.354595    99.759171       2.8518    1553.6919    38115.037 
  286000    301.13807   -275727.13            0   -274194.84   -833.94987    95.588964    99.354595    99.759171    2.8881861    1560.3697    38110.046 
  287000    299.64252   -275743.75            0   -274219.08   -945.15184    95.588964    99.354595    99.759171    3.3233159    1567.2151    38109.117 
  288000    302.30107   -275739.81            0   -274201.61   -928.77188    95.588964    99.354595    99.759171    2.8598919    1573.5994    38096.974 
  289000    299.05669   -275734.92            0   -274213.22   -779.16498    95.588964    99.354595    99.759171    3.4354574    1580.1623    38089.184 
  290000    299.76789   -275731.34            0   -274206.02   -941.04391    95.588964    99.354595    99.759171    3.3580636    1586.8001    38083.202 
  291000    301.38732   -275713.54            0   -274179.98   -746.77103    95.588964    99.354595    99.759171    4.1628779    1593.1229    38069.689 
  292000    300.98479   -275732.47            0   -274200.97   -820.54987    95.588964    99.354595    99.759171    3.3210874    1599.7579    38063.662 
  293000    301.49337    -275735.5            0   -274201.41   -1012.6315    95.588964    99.354595    99.759171    3.0386201    1606.6192     38062.99 
  294000    299.66204   -275725.16            0   -274200.38   -719.14868    95.588964    99.354595    99.759171    2.7651288    1613.1296    38053.992 
  295000     301.2399   -275735.69            0   -274202.88   -891.97014    95.588964    99.354595    99.759171    3.0160002    1619.6585    38045.448 
  296000    301.60614   -275728.77            0    -274194.1   -716.78325    95.588964    99.354595    99.759171    3.5729959    1626.3237    38040.109 
  297000      299.525   -275729.45            0   -274205.36   -768.23764    95.588964    99.354595    99.759171    2.9244265     1632.667     38027.26 
  298000    299.80246   -275734.89            0    -274209.4   -712.53779    95.588964    99.354595    99.759171    2.8241115    1639.2437    38019.878 
  299000    299.70154   -275737.67            0   -274212.69   -835.36384    95.588964    99.354595    99.759171    3.0490588    1646.1923    38021.093 
  300000     300.5866   -275737.03            0   -274207.55   -661.65511    95.588964    99.354595    99.759171    2.9870932    1652.7461    38013.161 
  301000    299.11598   -275726.83            0   -274204.83   -753.90945    95.588964    99.354595    99.759171     3.034889    1659.3281    38005.886 
  302000    300.17327   -275743.99            0   -274216.61   -813.87299    95.588964    99.354595    99.759171    2.8393575    1666.0081    38000.851 
  303000    299.25493   -275732.35            0   -274209.64   -936.94432    95.588964    99.354595    99.759171    3.2355925    1672.2887    37986.732 
  304000    299.52975    -275747.1            0   -274222.99   -1076.4846    95.588964    99.354595    99.759171    3.2709183    1678.8688    37979.449 
  305000    299.21321   -275728.81            0   -274206.32   -788.59082    95.588964    99.354595    99.759171    2.8811427    1685.8467    37981.135 
  306000    298.14016   -275737.94            0   -274220.91   -950.17583    95.588964    99.354595    99.759171    2.8420395     1692.346    37972.012 
  307000    299.01753   -275734.99            0   -274213.49   -773.34675    95.588964    99.354595    99.759171     3.213416    1698.8162    37962.263 
  308000    303.14319    -275723.1            0   -274180.61   -980.59933    95.588964    99.354595    99.759171    3.2793672    1705.6352      37960.3 
  309000    299.07067   -275730.03            0   -274208.26   -672.42785    95.588964    99.354595    99.759171    3.3369853    1711.9893    37947.995 
  310000    299.99577      -275742            0   -274215.53   -973.69683    95.588964    99.354595    99.759171    3.0279516    1718.5032    37939.263 
  311000    301.82722   -275737.04            0   -274201.24   -777.83958    95.588964    99.354595    99.759171     2.880229    1725.4835    37940.805 
  312000     300.9546    -275737.9            0   -274206.54   -841.96713    95.588964    99.354595    99.759171    3.1330375    1731.9535    37931.104 
  313000    299.57371   -275742.75            0   -274218.43   -994.43982    95.588964    99.354595    99.759171    3.0888387    1738.4013    37920.945 
  314000    301.27579   -275727.62            0   -274194.63   -877.14287    95.588964    99.354595    99.759171    3.0206982    1745.2179    37918.826 
  315000     298.9427   -275738.94            0   -274217.82    -896.4788    95.588964    99.354595    99.759171    3.5639264    1751.5709    37906.637 
  316000    301.23649   -275726.61            0   -274193.82   -928.74273    95.588964    99.354595    99.759171    3.1681913    1758.0366    37896.924 
  317000    298.70437   -275741.13            0   -274221.23   -744.67627    95.588964    99.354595    99.759171      3.29623    1765.0849    37899.743 
  318000    300.62494   -275736.65            0   -274206.98   -961.11046    95.588964    99.354595    99.759171    3.2894197    1771.6143    37891.393 
  319000    298.04993   -275747.67            0   -274231.09   -872.95022    95.588964    99.354595    99.759171    2.9113327     1778.104    37882.207 
  320000    298.72824   -275736.55            0   -274216.52   -720.58748    95.588964    99.354595    99.759171    2.9505375    1784.8953    37879.446 
  321000    299.47648   -275741.75            0   -274217.92   -868.16604    95.588964    99.354595    99.759171    3.3147356    1791.2846    37868.153 
  322000    300.50871   -275753.09            0      -274224   -783.43116    95.588964    99.354595    99.759171    3.3328116    1797.7144    37857.751 
  323000    300.07611   -275741.13            0   -274214.25   -1070.9729    95.588964    99.354595    99.759171    3.3135222     1804.737    37859.813 
  324000    299.38882   -275732.56            0   -274209.17   -790.11585    95.588964    99.354595    99.759171    2.9376806    1811.3666    37853.594 
  325000    299.94733   -275748.69            0   -274222.46   -812.33692    95.588964    99.354595    99.759171    2.8400456    1817.7689    37842.644 
  326000    301.62802   -275731.92            0   -274197.14   -802.08978    95.588964    99.354595    99.759171    3.2806211    1824.5896    37840.402 
  327000    300.24163   -275739.26            0   -274211.53   -677.78695    95.588964    99.354595    99.759171    3.0318277    1830.8996    37827.575 
  328000    298.26711   -275734.42            0   -274216.74   -890.92068    95.588964    99.354595    99.759171    2.9806251    1837.3636    37817.966 
  329000    299.38853   -275745.62            0   -274222.23    -1009.394    95.588964    99.354595    99.759171    3.2026912    1844.3743     37819.59 
  330000    299.57041   -275753.62            0   -274229.31    -957.6172    95.588964    99.354595    99.759171    3.3436925    1850.9597    37812.463 
  331000    298.51131   -275737.36            0   -274218.43   -762.05354    95.588964    99.354595    99.759171    3.2861114    1857.3342    37801.047 
  332000     300.8658   -275736.36            0   -274205.46   -889.41546    95.588964    99.354595    99.759171    3.0082748    1864.1876    37799.379 
  333000    299.56429    -275740.8            0   -274216.52   -912.03535    95.588964    99.354595    99.759171    2.7699163    1870.4894    37786.529 
  334000    301.64277   -275740.48            0   -274205.62   -909.59101    95.588964    99.354595    99.759171    3.0721227    1876.8134    37774.174 
  335000    299.80063   -275740.53            0   -274215.05   -675.96315    95.588964    99.354595    99.759171    3.3404075    1883.8265    37775.679 
  336000    300.89314   -275745.14            0   -274214.09   -866.63613    95.588964    99.354595    99.759171    3.2424152    1890.4998    37770.335 
  337000    299.44832    -275732.4            0   -274208.71    -865.7277    95.588964    99.354595    99.759171    2.8454575    1896.9025    37759.596 
  338000     299.1634   -275736.37            0   -274214.13     -663.682    95.588964    99.354595    99.759171     3.254333    1903.6805     37756.33 
  339000    298.74296   -275742.02            0   -274221.92   -801.82772    95.588964    99.354595    99.759171    2.8972879    1910.0777    37745.515 
  340000    300.49519   -275740.08            0   -274211.06   -1037.4148    95.588964    99.354595    99.759171    2.9285261    1916.4356    37733.957 
  341000    298.80115   -275744.34            0   -274223.95   -1241.5794    95.588964    99.354595    99.759171    3.0022699    1923.4727    37735.758 
  342000    300.36937   -275734.58            0   -274206.21   -923.25018    95.588964    99.354595    99.759171    3.0424228    1930.1835    37731.122 
  343000    298.79702   -275742.23            0   -274221.85   -937.48041    95.588964    99.354595    99.759171    2.8841628    1936.5562    37719.885 
  344000    299.01029   -275734.85            0   -274213.38   -751.90662    95.588964    99.354595    99.759171    2.9586674    1943.5046    37719.855 
  345000     301.4182   -275744.31            0   -274210.59   -756.97359    95.588964    99.354595    99.759171    2.8584259     1949.939    37709.838 
  346000    299.71677   -275749.74            0   -274224.68   -929.54524    95.588964    99.354595    99.759171    2.9027608    1956.2676    37697.804 
  347000    301.11192   -275740.74            0   -274208.59    -863.3732    95.588964    99.354595    99.759171    3.0874744    1963.2829    37698.997 
  348000     300.3446   -275733.08            0   -274204.83   -802.27121    95.588964    99.354595    99.759171    3.0953969    1969.9884    37694.207 
  349000    300.89298   -275748.86            0   -274217.82   -884.68095    95.588964    99.354595    99.759171    3.4188837    1976.3716    37683.259 
  350000    300.37059   -275749.91            0   -274221.52   -899.03035    95.588964    99.354595    99.759171    3.3379273    1983.1564    37679.971 
  351000    300.42074   -275737.02            0   -274208.38    -1045.919    95.588964    99.354595    99.759171    2.7142898    1989.5745    37669.718 
  352000    300.26754   -275738.96            0   -274211.11   -922.35873    95.588964    99.354595    99.759171    3.1872738    1995.8981    37657.707 
  353000    300.50182   -275738.28            0   -274209.23   -896.87428    95.588964    99.354595    99.759171     3.594837    2002.8735    37657.989 
  354000    299.72754   -275747.41            0    -274222.3   -979.91237    95.588964    99.354595    99.759171    3.2532412    2009.5935    37653.437 
  355000    299.71419   -275747.45            0    -274222.4   -850.21406    95.588964    99.354595    99.759171    3.6973445    2015.9738    37642.528 
  356000    299.60082   -275737.84            0   -274213.37   -834.01815    95.588964    99.354595    99.759171     2.878002    2022.7989    37639.924 
  357000    301.19315   -275745.87            0    -274213.3   -1012.7142    95.588964    99.354595    99.759171    2.9707499    2029.2381    37630.139 
  358000     299.8739   -275752.21            0   -274226.35   -912.36729    95.588964    99.354595    99.759171    2.7977121    2035.5887    37618.736 
  359000    300.46698   -275738.97            0    -274210.1   -1010.6254    95.588964    99.354595    99.759171    3.0685572    2042.6028    37619.588 
  360000    299.31124   -275752.67            0   -274229.68   -710.00086    95.588964    99.354595    99.759171    2.9323897    2049.4753    37617.789 
  361000    298.90116   -275735.92            0   -274215.01   -848.20928    95.588964    99.354595    99.759171    3.2699552    2055.8185    37606.275 
  362000    298.87228   -275753.15            0   -274232.39   -1104.1763    95.588964    99.354595    99.759171    3.0890499     2062.616    37603.076 
  363000      300.567   -275742.01            0   -274212.63   -742.44056    95.588964    99.354595    99.759171    3.0430514    2068.9879    37592.122 
  364000    300.57069   -275742.41            0   -274213.01   -780.68858    95.588964    99.354595    99.759171    2.8338537    2075.3438    37580.907 
  365000    298.65324   -275750.18            0   -274230.53   -888.11203    95.588964    99.354595    99.759171    3.2972594    2082.2622    37579.874 
  366000    299.97484   -275738.14            0   -274211.77   -791.12207    95.588964    99.354595    99.759171    3.4296247    2089.0594    37576.626 
  367000    296.44576    -275759.2            0   -274250.79   -1003.8858    95.588964    99.354595    99.759171    2.8756066     2095.379    37564.792 
  368000    299.19238   -275763.56            0   -274241.17   -984.75108    95.588964    99.354595    99.759171    3.4586891    2102.1185    37560.495 
  369000    302.92169   -275736.74            0   -274195.38   -859.56784    95.588964    99.354595    99.759171    3.1300632     2108.627    37552.068 
  370000     299.1951   -275754.94            0   -274232.54   -1078.4386    95.588964    99.354595    99.759171    3.3942635    2114.9638    37540.607 
  371000     300.8324   -275746.19            0   -274215.46   -765.16533    95.588964    99.354595    99.759171    3.3875862    2121.8109    37538.206 
  372000    301.84877   -275737.35            0   -274201.45   -827.71041    95.588964    99.354595    99.759171    3.1251342    2128.6547    37535.719 
  373000    300.10614   -275746.45            0   -274219.42   -884.37447    95.588964    99.354595    99.759171    3.2947127    2134.8998    37522.682 
  374000    299.81442   -275749.44            0   -274223.88   -1059.6178    95.588964    99.354595    99.759171    2.9888432    2141.5369    37516.554 
  375000    299.99729   -275761.87            0   -274235.39   -951.48485    95.588964    99.354595    99.759171    2.9356904    2148.0892    37508.942 
  376000    298.75724   -275744.75            0   -274224.58   -1053.4549    95.588964    99.354595    99.759171    3.1804244    2154.4593    37498.165 
  377000    301.37646   -275733.89            0   -274200.39   -913.18573    95.588964    99.354595    99.759171    2.9878212    2161.3092     37495.74 
  378000    301.76514   -275747.74            0   -274212.26   -896.52489    95.588964    99.354595    99.759171    3.6812761    2168.1792    37493.636 
  379000    298.00304   -275742.83            0   -274226.49   -771.94764    95.588964    99.354595    99.759171     3.001847    2174.5713    37483.264 
  380000    300.93779   -275747.65            0   -274216.38   -863.35193    95.588964    99.354595    99.759171    3.3924752    2181.2432    37477.724 
  381000    301.52765   -275755.22            0   -274220.95   -763.28308    95.588964    99.354595    99.759171    3.1014167    2187.7569    37469.469 
  382000    298.51003    -275751.1            0   -274232.19    -1006.844    95.588964    99.354595    99.759171    3.2566046    2194.1089    37458.461 
  383000    301.60133   -275750.82            0   -274216.17   -908.24871    95.588964    99.354595    99.759171    3.5767373    2200.8148    37453.505 
  384000    299.91003   -275750.52            0   -274224.48   -942.17461    95.588964    99.354595    99.759171    2.9194236    2207.7586    37452.576 
  385000    300.86432   -275751.32            0   -274220.43   -1027.2103    95.588964    99.354595    99.759171    3.3073058    2214.1026    37441.466 
  386000    301.21962   -275737.24            0   -274204.54   -1007.3784    95.588964    99.354595    99.759171    3.2525082    2220.6834    37434.378 
  387000    298.51837   -275743.97            0   -274225.01   -980.39021    95.588964    99.354595    99.759171    3.0459943    2227.2889    37427.706 
  388000    300.86654   -275743.02            0   -274212.11   -1042.8845    95.588964    99.354595    99.759171    3.1718854    2233.6402    37416.778 
  389000    298.63511    -275753.2            0   -274233.65   -1151.1596    95.588964    99.354595    99.759171    3.4148495    2240.5228    37414.748 
  390000    301.11621   -275755.43            0   -274223.25    -1112.752    95.588964    99.354595    99.759171    3.2374473     2247.435    37413.183 
  391000    297.99888    -275764.2            0   -274247.89   -904.30476    95.588964    99.354595    99.759171    2.8690166    2253.8528    37403.381 
  392000    302.52482   -275757.21            0   -274217.87   -971.15932    95.588964    99.354595    99.759171    3.3503975    2260.4138    37395.968 
  393000    298.63672   -275756.13            0   -274236.57   -885.41892    95.588964    99.354595    99.759171    3.1266255    2267.0104    37389.148 
  394000    300.27383   -275756.24            0   -274228.35   -830.06028    95.588964    99.354595    99.759171    2.7818641    2273.3731    37378.483 
  395000    299.81589   -275747.42            0   -274221.86   -1082.8352    95.588964    99.354595    99.759171     3.571018    2280.0377    37372.791 
  396000    299.29886   -275759.45            0   -274236.52   -1005.8283    95.588964    99.354595    99.759171    2.8797573    2286.9461    37371.078 
  397000    299.56017   -275744.54            0   -274220.28   -934.06715    95.588964    99.354595    99.759171    3.0914907    2293.3996    37361.925 
  398000    299.46035   -275751.88            0   -274228.13   -1090.1742    95.588964    99.354595    99.759171    2.9619445    2299.9189    37353.855 
  399000    299.13562   -275749.16            0   -274227.06   -968.74179    95.588964    99.354595    99.759171    3.4105565    2306.5819    37348.121 
  400000    300.02643   -275749.38            0   -274222.75   -958.02511    95.588964    99.354595    99.759171    3.2514752    2312.8768     37336.44 
  401000    301.57204   -275757.58            0   -274223.08   -1080.0559    95.588964    99.354595    99.759171    2.8901969     2319.513    37330.281 
  402000    300.03124   -275756.88            0   -274230.22   -901.81427    95.588964    99.354595    99.759171    3.0422422    2326.4794    37329.419 
  403000    299.92278   -275755.58            0   -274229.47   -1182.0376    95.588964    99.354595    99.759171    2.8325819    2332.9762     37321.01 
  404000    299.85032   -275745.43            0   -274219.69    -1025.858    95.588964    99.354595    99.759171    3.0814787    2339.4486    37312.223 
  405000    299.93456   -275749.26            0    -274223.1   -934.71583    95.588964    99.354595    99.759171    2.8093748    2346.1425     37306.97 
  406000    300.54499   -275756.71            0   -274227.44   -891.24278    95.588964    99.354595    99.759171     2.882234    2352.5991    37297.948 
  407000    299.91118   -275755.25            0    -274229.2   -968.61169    95.588964    99.354595    99.759171    2.8595529    2359.2136    37291.435 
  408000     299.6896   -275750.13            0   -274225.21   -1048.9566    95.588964    99.354595    99.759171    2.7879045    2366.1577    37290.117 
  409000    297.66677   -275762.18            0   -274247.55   -1097.4004    95.588964    99.354595    99.759171    3.4792901    2372.6405    37281.518 
  410000    299.61579   -275751.32            0   -274226.78    -670.0966    95.588964    99.354595    99.759171    2.9436877    2379.1094    37272.713 
  411000    300.97404   -275751.36            0    -274219.9   -962.92803    95.588964    99.354595    99.759171    3.1366559    2385.8212    37267.717 
  412000    299.64725   -275743.15            0   -274218.44   -1023.1872    95.588964    99.354595    99.759171    3.0985678    2392.1887    37257.347 
  413000    299.78838   -275755.28            0   -274229.85   -863.00506    95.588964    99.354595    99.759171     2.751303    2398.7556    37250.098 
  414000    297.45265    -275754.7            0   -274241.16   -1060.4062    95.588964    99.354595    99.759171    2.9439727     2405.794    37250.152 
  415000    299.95754      -275751            0   -274224.72   -955.19034    95.588964    99.354595    99.759171    2.9732324    2412.4362     37244.05 
  416000    299.81327   -275748.79            0   -274223.24   -827.64819    95.588964    99.354595    99.759171    3.0380502    2418.8966    37235.147 
  417000    299.39616   -275754.37            0   -274230.94    -1091.954    95.588964    99.354595    99.759171    3.0907838    2425.5907    37229.843 
  418000    299.79015   -275748.81            0   -274223.38   -1016.7445    95.588964    99.354595    99.759171    2.9437717    2431.9816    37219.892 
  419000    300.68062   -275757.79            0   -274227.83   -1104.7166    95.588964    99.354595    99.759171    3.0285174    2438.5324    37212.401 
  420000    300.41465   -275749.98            0   -274221.38   -981.00958    95.588964    99.354595    99.759171    3.2022656    2445.5199     37211.56 
  421000    301.52212   -275755.21            0   -274220.97     -947.515    95.588964    99.354595    99.759171    4.1290252    2452.0663    37203.993 
  422000    300.74437   -275749.44            0   -274219.15   -747.12793    95.588964    99.354595    99.759171    2.9178702    2458.6237    37196.597 
  423000     300.0067   -275751.38            0   -274224.84   -893.85797    95.588964    99.354595    99.759171    3.2689552    2465.3929    37192.402 
  424000     299.2642   -275756.97            0   -274234.22    -1222.956    95.588964    99.354595    99.759171     2.764434    2471.8452    37183.426 
  425000    299.95257   -275764.88            0   -274238.63   -974.20735    95.588964    99.354595    99.759171    3.2870027    2478.2942    37174.414 
  426000    299.98846   -275747.96            0   -274221.52   -1066.5651    95.588964    99.354595    99.759171    3.0018235    2485.2846    37173.512 
  427000    298.77355   -275760.12            0   -274239.86   -940.77341    95.588964    99.354595    99.759171    3.0807718    2491.8331    37165.988 
  428000    299.37842   -275749.43            0    -274226.1   -1026.6433    95.588964    99.354595    99.759171    3.3037883     2498.286    37157.048 
  429000    300.00761   -275757.82            0   -274231.29   -876.85543    95.588964    99.354595    99.759171    3.4958302    2505.0374    37152.546 
  430000    299.00077   -275765.44            0   -274244.03   -874.43218    95.588964    99.354595    99.759171    3.9272262    2511.4652    37143.249 
  431000    300.37284   -275758.06            0   -274229.67    -1021.534    95.588964    99.354595    99.759171    3.2056054    2517.8632    37133.525 
  432000    298.78712    -275761.9            0   -274241.57   -1004.3358    95.588964    99.354595    99.759171    3.0100072    2524.8897    37133.063 
  433000    300.05117   -275762.83            0   -274236.07   -930.81482    95.588964    99.354595    99.759171    3.3203904    2531.5012    37126.481 
  434000    298.29734   -275754.94            0    -274237.1   -965.29002    95.588964    99.354595    99.759171    2.9270845    2537.9387    37117.354 
  435000    299.80341   -275760.89            0   -274235.39   -968.26779    95.588964    99.354595    99.759171     3.006894    2544.9165     37116.12 
  436000    299.89414   -275748.43            0   -274222.47   -956.46572    95.588964    99.354595    99.759171    3.4203621    2551.2302    37105.198 
  437000    300.14634   -275764.26            0   -274237.01   -988.02061    95.588964    99.354595    99.759171    2.8688683    2557.7705    37097.586 
  438000    300.97568   -275760.51            0   -274229.05   -704.34804    95.588964    99.354595    99.759171    3.2131248    2564.7144    37095.817 
  439000    299.07957    -275761.9            0   -274240.09   -977.96534    95.588964    99.354595    99.759171    2.8217347    2571.2954    37088.787 
  440000    298.75586   -275769.37            0   -274249.21    -968.1086    95.588964    99.354595    99.759171    3.2203487       2577.7    37079.224 
  441000    299.38874      -275761            0   -274237.61   -841.09916    95.588964    99.354595    99.759171    2.9083858      2584.45     37074.63 
  442000    302.67246   -275755.09            0      -274215   -955.53593    95.588964    99.354595    99.759171    3.0006304    2590.8373    37064.836 
  443000    300.49814   -275766.85            0   -274237.82   -982.35804    95.588964    99.354595    99.759171    2.9908897    2597.2258    37055.076 
  444000     297.7885    -275751.1            0   -274235.86   -848.91621    95.588964    99.354595    99.759171    2.9724393    2604.1945     37053.59 
  445000    300.08977    -275766.8            0   -274239.85   -984.25267    95.588964    99.354595    99.759171    2.9580814    2610.8543    37047.692 
  446000     301.0076   -275754.36            0   -274222.73   -813.53748    95.588964    99.354595    99.759171    2.8686741    2617.2814    37038.497 
  447000    301.70576   -275775.33            0   -274240.15   -942.19273    95.588964    99.354595    99.759171    3.1704123       2624.1    37034.842 
  448000    300.48831   -275764.99            0   -274236.01   -934.43009    95.588964    99.354595    99.759171     2.794474    2630.4086    37023.993 
  449000    299.82485   -275758.83            0   -274233.23    -738.5593    95.588964    99.354595    99.759171    2.9821897    2636.7502    37013.628 
  450000    299.85768   -275762.25            0   -274236.48   -780.25542    95.588964    99.354595    99.759171    3.1511244    2643.6865    37011.611 
  451000    298.84503   -275758.97            0   -274238.35   -748.98817    95.588964    99.354595    99.759171    3.3164375    2650.3685    37006.019 
  452000    300.04454   -275758.02            0   -274231.29   -746.27204    95.588964    99.354595    99.759171    3.3199231    2656.6891    36995.386 
  453000     300.3737   -275768.16            0   -274239.76   -767.89141    95.588964    99.354595    99.759171    2.8918666     2663.531    36992.017 
  454000     298.7564   -275759.54            0   -274239.37    -877.5274    95.588964    99.354595    99.759171    2.9176374    2669.8821    36981.833 
  455000    299.96655   -275764.69            0   -274238.36   -985.47524    95.588964    99.354595    99.759171    2.8250921    2676.2076    36971.313 
  456000     298.2922   -275767.65            0   -274249.84   -991.09326    95.588964    99.354595    99.759171    2.9695516    2683.1349    36969.105 
  457000    302.82188   -275759.36            0    -274218.5   -821.34694    95.588964    99.354595    99.759171    2.8715859    2689.8741    36964.289 
  458000    300.98359   -275768.01            0   -274236.51   -930.98188    95.588964    99.354595    99.759171     2.943904    2696.2183    36954.051 
  459000    299.48971   -275762.92            0   -274239.02   -871.40103    95.588964    99.354595    99.759171    2.9526346    2702.9995    36949.805 
  460000    300.76733   -275771.16            0   -274240.75   -984.65657    95.588964    99.354595    99.759171    3.0264002    2709.3911    36940.235 
  461000    300.41052   -275761.54            0   -274232.95    -847.1684    95.588964    99.354595    99.759171    3.0163834    2715.7167    36929.782 
  462000    298.33972   -275758.44            0   -274240.39   -1183.7227    95.588964    99.354595    99.759171    3.1027314    2722.7088     36928.39 
  463000    300.28349   -275767.41            0   -274239.47   -947.27715    95.588964    99.354595    99.759171    3.5093665    2729.4042    36922.957 
  464000    299.07518   -275770.17            0   -274248.38   -1032.1049    95.588964    99.354595    99.759171    2.8143147     2735.733    36912.571 
  465000    298.19821   -275758.76            0   -274241.43   -819.36433    95.588964    99.354595    99.759171    3.1131563    2742.4972    36908.065 
  466000    300.96002   -275764.12            0   -274232.74   -1123.6534    95.588964    99.354595    99.759171     4.430439    2748.9405     36899.24 
  467000    300.02385   -275760.25            0   -274233.63   -1008.4936    95.588964    99.354595    99.759171    3.3004188    2755.3013    36889.321 
  468000    299.74361   -275767.71            0   -274242.52   -1018.7351    95.588964    99.354595    99.759171     2.872655    2762.1574    36886.035 
  469000    301.02329   -275763.38            0   -274231.67   -944.44827    95.588964    99.354595    99.759171    3.5263597    2768.9788    36882.269 
  470000    299.96601   -275765.81            0   -274239.49   -922.63481    95.588964    99.354595    99.759171    2.9271015     2775.245    36871.112 
  471000    299.31547   -275763.01            0      -274240   -876.73437    95.588964    99.354595    99.759171    3.0066945    2781.9722    36866.088 
  472000    299.68771   -275764.96            0   -274240.05   -890.40011    95.588964    99.354595    99.759171    3.7312143    2788.3844    36856.892 
  473000    300.57378   -275767.87            0   -274238.45   -1030.2957    95.588964    99.354595    99.759171    2.8092172    2794.6825    36846.204 
  474000    301.25268    -275758.3            0   -274225.43   -799.17665    95.588964    99.354595    99.759171    3.8302232    2801.5106    36842.507 
  475000    300.00798   -275760.49            0   -274233.95    -952.2432    95.588964    99.354595    99.759171    3.1823025    2808.3571    36839.038 
  476000    300.01911   -275755.13            0   -274228.53    -1144.426    95.588964    99.354595    99.759171    3.1084806    2814.7131    36829.134 
  477000    300.17487   -275773.45            0   -274246.06   -959.26511    95.588964    99.354595    99.759171    3.1998801    2821.3661    36823.123 
  478000    299.08886   -275757.74            0   -274235.88   -1002.3174    95.588964    99.354595    99.759171    2.9741987    2827.9563    36816.291 
  479000    298.24507   -275759.86            0   -274242.29   -935.73267    95.588964    99.354595    99.759171    3.3096484    2834.3092    36806.378 
  480000     299.1082   -275758.28            0   -274236.32   -976.00107    95.588964    99.354595    99.759171    2.7482565    2841.0581    36801.614 
  481000    300.64292   -275765.88            0   -274236.11   -941.51337    95.588964    99.354595    99.759171     3.210327    2847.9674    36798.911 
  482000    299.41074   -275764.36            0   -274240.86   -895.55773    95.588964    99.354595    99.759171    3.0346007    2854.4091    36790.162 
  483000    299.58894   -275768.26            0   -274243.85   -904.48533    95.588964    99.354595    99.759171    3.4902723    2861.0003    36783.346 
  484000    298.89678   -275769.58            0   -274248.69   -1019.9644    95.588964    99.354595    99.759171    3.0944186    2867.6804    36777.671 
  485000    300.19657   -275764.62            0   -274237.12    -880.3093    95.588964    99.354595    99.759171    2.9555126    2873.9941    36767.303 
  486000     298.8897   -275765.79            0   -274244.94   -832.31651    95.588964    99.354595    99.759171     3.189552    2880.6832    36761.746 
  487000    302.23919   -275769.82            0   -274231.93   -798.50843    95.588964    99.354595    99.759171    3.2005461     2887.558    36758.547 
  488000    301.93783   -275760.04            0   -274223.68   -980.09561    95.588964    99.354595    99.759171    3.0007675    2893.9848    36749.642 
  489000     299.6553   -275765.47            0   -274240.73   -1070.2134    95.588964    99.354595    99.759171    3.0904891    2900.5275    36742.217 
  490000    301.82921    -275751.6            0   -274215.79    -936.2691    95.588964    99.354595    99.759171    3.3946991    2907.1243     36735.48 
[...]
15930000    300.88054   -275936.82            0   -274405.84   -1447.5676    95.588964    99.354595    99.759171    2.9967555    65392.286    794.23829 
15931000    299.43387   -275947.93            0   -274424.31   -1323.9877    95.588964    99.354595    99.759171    3.2639505    65399.199    787.62318 
15932000    301.53782   -275943.79            0   -274409.47   -1601.8812    95.588964    99.354595    99.759171    3.1179173    65405.787    781.00413 
15933000      297.535    -275941.8            0   -274427.85   -1435.3594    95.588964    99.354595    99.759171    3.4038211    65412.309    774.38432 
15934000    299.37073   -275940.09            0    -274416.8   -1415.0133    95.588964    99.354595    99.759171    3.3684583    65419.039    767.76695 
15935000     299.7187    -275953.9            0   -274428.83   -1406.6459    95.588964    99.354595    99.759171    3.0323653    65425.389    761.14514 
15936000    300.24949   -275941.45            0   -274413.68   -1537.1341    95.588964    99.354595    99.759171    3.0993013    65431.985    754.52623 
15937000    298.58388   -275962.82            0   -274443.53    -1529.096    95.588964    99.354595    99.759171    3.0943718    65438.885     747.9108 
15938000    298.41493   -275938.55            0   -274420.12   -1374.6791    95.588964    99.354595    99.759171    3.2587383    65445.579    741.29297 
15939000    299.44477   -275945.56            0   -274421.89   -1391.6105    95.588964    99.354595    99.759171       2.8177    65452.164     734.6739 
15940000    299.10275   -275944.03            0    -274422.1   -1246.7557    95.588964    99.354595    99.759171    3.4537358    65458.969    728.05729 
15941000    297.56144   -275948.17            0   -274434.08   -1244.1924    95.588964    99.354595    99.759171    3.0795016    65465.297    721.43539 
15942000    300.63213   -275945.66            0   -274415.94   -1345.0743    95.588964    99.354595    99.759171    2.9360027    65471.772    714.81514 
15943000    300.07393   -275947.57            0   -274420.69   -1433.7266    95.588964    99.354595    99.759171    2.8082632    65478.713    708.19997 
15944000      301.924   -275950.23            0   -274413.94   -1522.6991    95.588964    99.354595    99.759171    2.7856877    65485.309    701.58103 
15945000    299.94837   -275948.05            0   -274421.81   -1480.4588    95.588964    99.354595    99.759171    3.2284398    65492.088    694.96404 
15946000    301.21553   -275945.11            0   -274412.42   -1339.0794    95.588964    99.354595    99.759171    2.9023694    65498.944    688.34784 
15947000    299.00286   -275947.05            0   -274425.63   -1470.5397    95.588964    99.354595    99.759171    3.0032778    65505.333    681.72672 
15948000    297.53573   -275944.02            0   -274430.06   -1332.3626    95.588964    99.354595    99.759171     3.034257     65512.03    675.10882 
15949000    299.42511   -275947.62            0   -274424.05   -1646.1842    95.588964    99.354595    99.759171    2.7639552     65518.85    668.49216 
15950000     301.1531   -275950.01            0   -274417.65    -1251.879    95.588964    99.354595    99.759171    3.0857122    65525.502    661.87376 
15951000    299.73685   -275942.24            0   -274417.08    -1341.721    95.588964    99.354595    99.759171    3.3580305    65532.107    655.25488 
15952000    300.41403   -275946.04            0   -274417.44   -1302.2448    95.588964    99.354595    99.759171    2.5231609    65538.893    648.63781 
15953000    298.48575    -275945.3            0   -274426.51   -1415.1193    95.588964    99.354595    99.759171     3.532958    65545.211     642.0161 
15954000    302.74931   -275940.89            0    -274400.4   -1368.0001    95.588964    99.354595    99.759171    3.3888853    65551.954    635.39858 
15955000    300.23375   -275943.42            0   -274415.73   -1560.7148    95.588964    99.354595    99.759171    3.0964316    65558.879    628.78279 
15956000    301.09795   -275947.53            0   -274415.45   -1186.7092    95.588964    99.354595    99.759171    3.0971143    65565.557    622.16458 
15957000    299.04271   -275954.06            0   -274432.43   -1440.8185    95.588964    99.354595    99.759171     3.289957    65572.085    615.54495 
15958000    298.12969   -275956.19            0   -274439.21   -1378.7586    95.588964    99.354595    99.759171    3.2003637    65578.885    608.92788 
15959000    299.79261   -275937.89            0   -274412.44   -1300.0674    95.588964    99.354595    99.759171    2.8532309    65585.163    602.30596 
15960000    299.09739   -275953.96            0   -274432.05   -1370.2903    95.588964    99.354595    99.759171    2.8280638    65591.779     595.6872 
15961000    297.89776   -275938.09            0   -274422.28   -1384.6012    95.588964    99.354595    99.759171    2.9790175    65598.625    589.07049 
15962000    299.75735   -275941.48            0   -274416.21   -1357.0998    95.588964    99.354595    99.759171    3.1792057    65605.391    582.45303 
15963000    300.62951   -275950.55            0   -274420.85   -1643.1934    95.588964    99.354595    99.759171    2.9165139    65611.854    575.83287 
15964000     299.1111   -275942.62            0   -274420.65   -1482.8772    95.588964    99.354595    99.759171    3.1497378    65618.597    569.21518 
15965000    299.98945   -275948.59            0   -274422.15   -1500.0939    95.588964    99.354595    99.759171    3.0870701    65624.988    562.59445 
15966000     300.6768   -275944.88            0   -274414.94   -1387.0359    95.588964    99.354595    99.759171    3.2799738    65631.562    555.97531 
15967000    297.27821   -275938.45            0    -274425.8   -1423.9539    95.588964    99.354595    99.759171    2.7400002    65638.486    549.35912 
15968000    300.20892   -275950.11            0   -274422.55   -1530.5949    95.588964    99.354595    99.759171    3.2860222    65645.189    542.74103 
15969000    301.20208   -275943.44            0   -274410.83   -1353.4319    95.588964    99.354595    99.759171    2.9335804    65651.643    536.12089 
15970000    297.99439   -275940.12            0   -274423.83   -1452.2484    95.588964    99.354595    99.759171    3.1673566    65658.448    529.50361 
15971000    301.20276   -275950.47            0   -274417.85   -1348.2062    95.588964    99.354595    99.759171    3.0782832    65664.812    522.88279 
15972000     297.1204   -275957.21            0   -274445.36    -1357.803    95.588964    99.354595    99.759171    2.8888759    65671.401    516.26379 
15973000    300.72745   -275944.44            0   -274414.24    -1498.591    95.588964    99.354595    99.759171    3.0985743    65678.274    509.64699 
15974000    300.28129   -275952.65            0   -274424.72   -1347.8714    95.588964    99.354595    99.759171    3.2228158    65685.005    503.02906 
15975000    300.61327   -275935.78            0   -274406.16   -1475.4462    95.588964    99.354595    99.759171    3.1145715    65691.493    496.40927 
15976000    299.73537   -275956.95            0    -274431.8   -1455.0437    95.588964    99.354595    99.759171    2.9574437    65698.207    489.79119 
15977000    298.67854   -275950.41            0   -274430.63   -1627.6071    95.588964    99.354595    99.759171    3.3635753    65704.541    483.17029 
15978000    301.21366   -275949.01            0   -274416.33     -1491.31    95.588964    99.354595    99.759171    2.9245589    65711.148    476.55144 
15979000    299.24092   -275953.12            0   -274430.48   -1623.5905    95.588964    99.354595    99.759171    2.7565233    65718.086    469.93495 
15980000    302.41829   -275948.25            0   -274409.44   -1443.0286    95.588964    99.354595    99.759171    2.9921026    65724.778    463.31666 
15981000    301.49542   -275948.79            0   -274414.68   -1318.4872    95.588964    99.354595    99.759171    3.2373065    65731.143    456.69609 
15982000    300.28128   -275959.58            0   -274431.66   -1571.4824    95.588964    99.354595    99.759171    2.9339521    65737.937     450.0785 
15983000    300.39734   -275954.28            0   -274425.76    -1307.726    95.588964    99.354595    99.759171    2.9562544    65744.256    443.45768 
15984000    299.26797   -275950.93            0   -274428.16   -1651.4912    95.588964    99.354595    99.759171    2.9595187    65750.722     436.8379 
15985000    300.38531   -275946.76            0    -274418.3   -1554.3024    95.588964    99.354595    99.759171    3.2093851    65757.707    430.22153 
15986000    300.41466   -275951.54            0   -274422.93   -1511.7388    95.588964    99.354595    99.759171    3.3604623    65764.445    423.60351 
15987000    299.73335   -275958.82            0   -274433.68   -1458.4524    95.588964    99.354595    99.759171    2.8780684    65770.824    416.98319 
15988000    299.66991   -275936.24            0   -274411.42    -1282.061    95.588964    99.354595    99.759171    3.3455913    65777.607    410.36543 
15989000    299.78993   -275948.34            0   -274422.91   -1404.2638    95.588964    99.354595    99.759171    2.7094533    65783.922    403.74477 
15990000     299.7837   -275955.13            0   -274429.73   -1669.3157    95.588964    99.354595    99.759171    3.0867878    65790.417    397.12526 
15991000     300.4605   -275953.05            0   -274424.21   -1426.3142    95.588964    99.354595    99.759171    2.9972191    65797.339     390.5083 
15992000    301.49964   -275932.72            0    -274398.6   -1430.2278    95.588964    99.354595    99.759171    3.3705327      65804.1    383.89034 
15993000    299.20174   -275945.04            0    -274422.6   -1400.1913    95.588964    99.354595    99.759171    2.9307338    65810.513    377.27036 
15994000    299.64943   -275960.66            0   -274435.95   -1435.6143    95.588964    99.354595    99.759171    3.0834333    65817.315    370.65262 
15995000    300.70029   -275948.92            0   -274418.86   -1613.2585    95.588964    99.354595    99.759171    3.3639355    65823.695     364.0325 
15996000    298.30759    -275964.3            0   -274446.41   -1497.2408    95.588964    99.354595    99.759171    3.5110258    65830.094    357.41253 
15997000    301.29962   -275949.68            0   -274416.57   -1490.9836    95.588964    99.354595    99.759171    2.7780783    65837.102    350.79586 
15998000    299.97926    -275931.2            0   -274404.81   -1517.2569    95.588964    99.354595    99.759171    3.2710057    65843.813    344.17755 
15999000    299.20522   -275939.21            0   -274416.75   -1376.9533    95.588964    99.354595    99.759171    3.1448573    65850.181    337.55747 
16000000    299.49062   -275951.54            0   -274427.63   -1220.7758    95.588964    99.354595    99.759171    3.9409086    65856.994    330.93967 
16001000    298.65328   -275958.12            0   -274438.48   -1395.6221    95.588964    99.354595    99.759171    2.9301991    65863.403    324.31984 
16002000    299.43701   -275948.98            0   -274425.34   -1402.2614    95.588964    99.354595    99.759171    3.4008582    65869.849    317.70024 
16003000    298.55384   -275942.29            0   -274423.15   -1499.8166    95.588964    99.354595    99.759171    2.8834166    65876.794    311.08302 
16004000    298.18383    -275945.3            0   -274428.05   -1525.5708    95.588964    99.354595    99.759171    2.9891544    65883.549    304.46487 
16005000     300.5505   -275943.66            0   -274414.36   -1543.5609    95.588964    99.354595    99.759171    2.7687302    65890.028    297.84543 
16006000    302.35105   -275933.17            0   -274394.71   -1417.8538    95.588964    99.354595    99.759171    2.7355856    65896.846    291.22752 
16007000    298.78665   -275950.58            0   -274430.25   -1186.4463    95.588964    99.354595    99.759171    2.8528331    65903.276     284.6079 
16008000    301.38084   -275945.78            0   -274412.25    -1454.678    95.588964    99.354595    99.759171    2.7978085    65909.694    277.98826 
16009000    302.06035   -275929.29            0   -274392.31   -1366.7925    95.588964    99.354595    99.759171    3.3144225    65916.667    271.37096 
16010000    299.31947   -275954.94            0   -274431.91   -1637.4289    95.588964    99.354595    99.759171    3.2181187    65923.463    264.75286 
16011000    297.77146   -275945.67            0   -274430.52    -1426.317    95.588964    99.354595    99.759171    3.0136622    65929.956    258.13355 
16012000    298.81408   -275944.01            0   -274423.54   -1512.9232    95.588964    99.354595    99.759171    3.4582281    65936.804    251.51561 
16013000    300.78667   -275944.28            0   -274413.78   -1459.1416    95.588964    99.354595    99.759171    3.0530505    65943.158     244.8958 
16014000    300.60575   -275945.19            0   -274415.61   -1344.3392    95.588964    99.354595    99.759171    2.9867051    65949.549    238.27617 
16015000    300.79336   -275938.86            0   -274408.32   -1530.5394    95.588964    99.354595    99.759171    3.7401436    65956.512     231.6586 
16016000     298.5683   -275943.45            0   -274424.24   -1488.5016    95.588964    99.354595    99.759171    2.4786432    65963.307    225.04038 
16017000    302.65739   -275943.06            0   -274403.04   -1527.2137    95.588964    99.354595    99.759171    2.7711515    65969.674    218.42071 
16018000    300.35819   -275949.35            0   -274421.03   -1348.8983    95.588964    99.354595    99.759171     3.090177    65976.504    211.80258 
16019000    299.87101   -275946.01            0   -274420.17   -1296.1261    95.588964    99.354595    99.759171    3.0291178     65982.95    205.18321 
16020000    302.15112   -275942.82            0   -274405.38   -1275.0576    95.588964    99.354595    99.759171    3.4497684    65989.387    198.56385 
16021000     300.6144   -275954.22            0   -274424.59   -1508.8633    95.588964    99.354595    99.759171    3.0418751    65996.349    191.94605 
16022000    298.82665   -275946.75            0   -274426.22    -1540.838    95.588964    99.354595    99.759171    2.7387237    66003.131    185.32768 
16023000    301.53034   -275935.45            0   -274401.17   -1481.6851    95.588964    99.354595    99.759171    3.1661958    66009.535    178.70826 
16024000    300.43981   -275949.89            0   -274421.15   -1565.8191    95.588964    99.354595    99.759171    3.2863297    66016.294     172.0898 
16025000    299.84288    -275940.4            0    -274414.7   -1604.6395    95.588964    99.354595    99.759171    2.9618894     66022.68    165.47038 
16026000    300.43126   -275949.21            0   -274420.52   -1393.1746    95.588964    99.354595    99.759171     3.087087    66029.106     158.8511 
16027000    298.50022   -275951.42            0   -274432.55   -1627.7796    95.588964    99.354595    99.759171    3.0978471    66036.104    152.23318 
16028000    301.07284   -275954.06            0    -274422.1   -1473.7713    95.588964    99.354595    99.759171    3.0539736    66042.958    145.61486 
16029000    298.45793   -275958.58            0   -274439.93   -1501.1942    95.588964    99.354595    99.759171    3.5523904    66049.369    138.99557 
16030000    296.87523   -275937.25            0   -274426.65   -1467.7503    95.588964    99.354595    99.759171    2.8973281    66056.074     132.3769 
16031000    300.38447   -275941.15            0    -274412.7   -1547.4081    95.588964    99.354595    99.759171    2.9432623    66062.531    125.75775 
16032000    299.70459   -275948.04            0   -274423.04   -1309.2671    95.588964    99.354595    99.759171    2.9993937    66068.881    119.13843 
16033000    302.04318   -275953.75            0   -274416.86    -1563.856    95.588964    99.354595    99.759171    3.0974947     66075.86    112.52025 
16034000    301.00793   -275946.63            0   -274415.01   -1452.5158    95.588964    99.354595    99.759171    2.9956944    66082.527    105.90149 
16035000     298.0686   -275959.81            0   -274443.14   -1463.7118    95.588964    99.354595    99.759171    3.7785551    66088.891     99.28226 
16036000    298.57974   -275937.19            0   -274417.92   -1431.0266    95.588964    99.354595    99.759171    3.1544654    66095.794    92.663841 
16037000    299.26857   -275954.63            0   -274431.86   -1356.9115    95.588964    99.354595    99.759171     3.177501    66102.334    86.044892 
16038000    300.79665   -275941.98            0   -274411.42   -1389.0566    95.588964    99.354595    99.759171    3.1963227    66108.748    79.425809 
16039000    301.73621   -275954.65            0   -274419.32   -1386.7636    95.588964    99.354595    99.759171    2.9069439    66115.696    72.807354 
16040000    299.43092    -275952.7            0    -274429.1   -1498.8839    95.588964    99.354595    99.759171    2.8217206    66122.403    66.188591 
16041000    302.05559   -275948.23            0   -274411.27   -1589.3285    95.588964    99.354595    99.759171    3.4447541    66128.869    59.569595 
16042000    298.72866   -275948.29            0   -274428.27   -1619.9261    95.588964    99.354595    99.759171    2.8547789    66135.606    52.950846 
16043000    301.86225   -275950.12            0   -274414.15   -1413.5644    95.588964    99.354595    99.759171    2.9929087     66142.08    46.331888 
16044000    300.19592   -275945.54            0   -274418.05   -1530.3166    95.588964    99.354595    99.759171    2.9029841    66148.511    39.712935 
16045000    299.27329   -275953.74            0   -274430.94    -1448.434    95.588964    99.354595    99.759171    3.1515885    66155.498    33.094296 
16046000       300.67   -275948.91            0   -274419.01   -1434.4627    95.588964    99.354595    99.759171    2.8961461    66162.271    26.475499 
16047000    301.07466   -275950.08            0   -274418.11   -1435.2146    95.588964    99.354595    99.759171    3.1428153    66168.646    19.856551 
16048000      298.999   -275949.16            0   -274427.76   -1472.8601    95.588964    99.354595    99.759171    2.8411418    66175.334    13.237714 
16049000    299.99765   -275939.43            0   -274412.95   -1487.7161    95.588964    99.354595    99.759171    3.0897104    66181.834    6.6188453 
16050000    301.07141   -275960.39            0   -274428.44   -1266.2298    95.588964    99.354595    99.759171    2.7725056    66188.211            0 
Loop time of 66188.2 on 160 procs for 10000000 steps with 39366 atoms

Performance: 13.054 ns/day, 1.839 hours/ns, 151.084 timesteps/s
98.9% CPU use with 160 MPI tasks x 1 OpenMP threads

MPI task timing breakdown:
Section |  min time  |  avg time  |  max time  |%varavg| %total
---------------------------------------------------------------
Pair    | 13595      | 15061      | 17449      | 531.0 | 22.75
Kspace  | 41066      | 43551      | 45234      | 358.1 | 65.80
Neigh   | 269.77     | 294.91     | 316.33     |  48.7 |  0.45
Comm    | 5088.1     | 6055       | 7384.7     | 533.6 |  9.15
Output  | 69.216     | 69.257     | 69.262     |   0.0 |  0.10
Modify  | 839.53     | 986.75     | 1113.4     | 168.0 |  1.49
Other   |            | 171        |            |       |  0.26

Nlocal:    246.037 ave 265 max 229 min
Histogram: 7 9 13 29 24 41 17 10 6 4
Nghost:    3926.96 ave 3970 max 3878 min
Histogram: 5 4 17 14 23 38 26 19 6 8
Neighs:    58647 ave 65474 max 52263 min
Histogram: 8 5 16 29 31 29 17 10 7 8

Total # of neighbors = 9383525
Ave neighs/atom = 238.366
Neighbor list builds = 232251
Dangerous builds = 0

# Final Commands
variable        final_energy equal etotal
print           "final_energy: ${'final_energy'}"
ERROR on proc 0: Substitution for illegal variable 'final_energy' (../input.cpp:553)
Last command: final_energy: ${'final_energy'
