 # Li12393 Sc3645 Cl23328
 
       39366  atoms
           3  atom types
 
      0.000000000000      93.633300000000  xlo xhi
      0.000000000000      93.633300000000  ylo yhi
      0.000000000000      93.633300000000  zlo zhi
 
Masses
 
            1   6.94000000              # Li
            2   44.95591200             # Sc
            3   35.45000000             # Cl
 
Atoms # charge
 
         1    1   1.000000        3.901387812111       3.901387812111       9.103237291926
         2    1   1.000000        3.901387812111       3.901387812111      19.506937187889
         3    1   1.000000        3.901387812111       3.901387812111      29.910637083852
         4    1   1.000000        3.901387812111       3.901387812111      40.314337916148
         5    1   1.000000        3.901387812111       3.901387812111      50.718037812111
         6    1   1.000000        3.901387812111       3.901387812111      61.121737708074
         7    1   1.000000        3.901387812111       3.901387812111      71.525437604037
         8    1   1.000000        3.901387812111       3.901387812111      81.929137500000
         9    1   1.000000        3.901387812111       3.901387812111      92.332837395963
        10    1   1.000000        3.901387812111      14.305087708074       9.103237291926
        11    1   1.000000        3.901387812111      14.305087708074      19.506937187889
        12    1   1.000000        3.901387812111      14.305087708074      29.910637083852
        13    1   1.000000        3.901387812111      14.305087708074      40.314337916148
        14    1   1.000000        3.901387812111      14.305087708074      50.718037812111
        15    1   1.000000        3.901387812111      14.305087708074      61.121737708074
        16    1   1.000000        3.901387812111      14.305087708074      71.525437604037
        17    1   1.000000        3.901387812111      14.305087708074      81.929137500000
        18    1   1.000000        3.901387812111      14.305087708074      92.332837395963
        19    1   1.000000        3.901387812111      24.708787604037       9.103237291926
        20    1   1.000000        3.901387812111      24.708787604037      19.506937187889
        21    1   1.000000        3.901387812111      24.708787604037      29.910637083852
        22    1   1.000000        3.901387812111      24.708787604037      40.314337916148
        23    1   1.000000        3.901387812111      24.708787604037      50.718037812111
        24    1   1.000000        3.901387812111      24.708787604037      61.121737708074
        25    1   1.000000        3.901387812111      24.708787604037      71.525437604037
        26    1   1.000000        3.901387812111      24.708787604037      81.929137500000
        27    1   1.000000        3.901387812111      24.708787604037      92.332837395963
        28    1   1.000000        3.901387812111      35.112487500000       9.103237291926
        29    1   1.000000        3.901387812111      35.112487500000      19.506937187889
        30    1   1.000000        3.901387812111      35.112487500000      29.910637083852
        31    1   1.000000        3.901387812111      35.112487500000      40.314337916148
        32    1   1.000000        3.901387812111      35.112487500000      50.718037812111
        33    1   1.000000        3.901387812111      35.112487500000      61.121737708074
        34    1   1.000000        3.901387812111      35.112487500000      71.525437604037
        35    1   1.000000        3.901387812111      35.112487500000      81.929137500000
        36    1   1.000000        3.901387812111      35.112487500000      92.332837395963
        37    1   1.000000        3.901387812111      45.516187395963       9.103237291926
        38    1   1.000000        3.901387812111      45.516187395963      19.506937187889
        39    1   1.000000        3.901387812111      45.516187395963      29.910637083852
        40    1   1.000000        3.901387812111      45.516187395963      40.314337916148
        41    1   1.000000        3.901387812111      45.516187395963      50.718037812111
        42    1   1.000000        3.901387812111      45.516187395963      61.121737708074
        43    1   1.000000        3.901387812111      45.516187395963      71.525437604037
        44    1   1.000000        3.901387812111      45.516187395963      81.929137500000
        45    1   1.000000        3.901387812111      45.516187395963      92.332837395963
        46    1   1.000000        3.901387812111      55.919887291926       9.103237291926
        47    1   1.000000        3.901387812111      55.919887291926      19.506937187889
        48    1   1.000000        3.901387812111      55.919887291926      29.910637083852
        49    1   1.000000        3.901387812111      55.919887291926      40.314337916148
        50    1   1.000000        3.901387812111      55.919887291926      50.718037812111
        51    1   1.000000        3.901387812111      55.919887291926      61.121737708074
        52    1   1.000000        3.901387812111      55.919887291926      71.525437604037
        53    1   1.000000        3.901387812111      55.919887291926      81.929137500000
        54    1   1.000000        3.901387812111      55.919887291926      92.332837395963
        55    1   1.000000        3.901387812111      66.323587187889       9.103237291926
        56    1   1.000000        3.901387812111      66.323587187889      19.506937187889
        57    1   1.000000        3.901387812111      66.323587187889      29.910637083852
        58    1   1.000000        3.901387812111      66.323587187889      40.314337916148
        59    1   1.000000        3.901387812111      66.323587187889      50.718037812111
        60    1   1.000000        3.901387812111      66.323587187889      61.121737708074
        61    1   1.000000        3.901387812111      66.323587187889      71.525437604037
        62    1   1.000000        3.901387812111      66.323587187889      81.929137500000
        63    1   1.000000        3.901387812111      66.323587187889      92.332837395963
        64    1   1.000000        3.901387812111      76.727287083852       9.103237291926
        65    1   1.000000        3.901387812111      76.727287083852      19.506937187889
        66    1   1.000000        3.901387812111      76.727287083852      29.910637083852
        67    1   1.000000        3.901387812111      76.727287083852      40.314337916148
        68    1   1.000000        3.901387812111      76.727287083852      50.718037812111
        69    1   1.000000        3.901387812111      76.727287083852      61.121737708074
        70    1   1.000000        3.901387812111      76.727287083852      71.525437604037
        71    1   1.000000        3.901387812111      76.727287083852      81.929137500000
        72    1   1.000000        3.901387812111      76.727287083852      92.332837395963
        73    1   1.000000        3.901387812111      87.130987916148       9.103237291926
        74    1   1.000000        3.901387812111      87.130987916148      19.506937187889
        75    1   1.000000        3.901387812111      87.130987916148      29.910637083852
        76    1   1.000000        3.901387812111      87.130987916148      40.314337916148
        77    1   1.000000        3.901387812111      87.130987916148      50.718037812111
        78    1   1.000000        3.901387812111      87.130987916148      61.121737708074
        79    1   1.000000        3.901387812111      87.130987916148      71.525437604037
        80    1   1.000000        3.901387812111      87.130987916148      81.929137500000
        81    1   1.000000        3.901387812111      87.130987916148      92.332837395963
        82    1   1.000000       14.305087708074       3.901387812111       9.103237291926
        83    1   1.000000       14.305087708074       3.901387812111      19.506937187889
        84    1   1.000000       14.305087708074       3.901387812111      29.910637083852
        85    1   1.000000       14.305087708074       3.901387812111      40.314337916148
        86    1   1.000000       14.305087708074       3.901387812111      50.718037812111
        87    1   1.000000       14.305087708074       3.901387812111      61.121737708074
        88    1   1.000000       14.305087708074       3.901387812111      71.525437604037
        89    1   1.000000       14.305087708074       3.901387812111      81.929137500000
        90    1   1.000000       14.305087708074       3.901387812111      92.332837395963
        91    1   1.000000       14.305087708074      14.305087708074       9.103237291926
        92    1   1.000000       14.305087708074      14.305087708074      19.506937187889
        93    1   1.000000       14.305087708074      14.305087708074      29.910637083852
        94    1   1.000000       14.305087708074      14.305087708074      40.314337916148
        95    1   1.000000       14.305087708074      14.305087708074      50.718037812111
        96    1   1.000000       14.305087708074      14.305087708074      61.121737708074
        97    1   1.000000       14.305087708074      14.305087708074      71.525437604037
        98    1   1.000000       14.305087708074      14.305087708074      81.929137500000
        99    1   1.000000       14.305087708074      14.305087708074      92.332837395963
       100    1   1.000000       14.305087708074      24.708787604037       9.103237291926
       101    1   1.000000       14.305087708074      24.708787604037      19.506937187889
       102    1   1.000000       14.305087708074      24.708787604037      29.910637083852
       103    1   1.000000       14.305087708074      24.708787604037      40.314337916148
       104    1   1.000000       14.305087708074      24.708787604037      50.718037812111
       105    1   1.000000       14.305087708074      24.708787604037      61.121737708074
       106    1   1.000000       14.305087708074      24.708787604037      71.525437604037
       107    1   1.000000       14.305087708074      24.708787604037      81.929137500000
       108    1   1.000000       14.305087708074      24.708787604037      92.332837395963
       109    1   1.000000       14.305087708074      35.112487500000       9.103237291926
       110    1   1.000000       14.305087708074      35.112487500000      19.506937187889
       111    1   1.000000       14.305087708074      35.112487500000      29.910637083852
       112    1   1.000000       14.305087708074      35.112487500000      40.314337916148
       113    1   1.000000       14.305087708074      35.112487500000      50.718037812111
       114    1   1.000000       14.305087708074      35.112487500000      61.121737708074
       115    1   1.000000       14.305087708074      35.112487500000      71.525437604037
       116    1   1.000000       14.305087708074      35.112487500000      81.929137500000
       117    1   1.000000       14.305087708074      35.112487500000      92.332837395963
       118    1   1.000000       14.305087708074      45.516187395963       9.103237291926
       119    1   1.000000       14.305087708074      45.516187395963      19.506937187889
       120    1   1.000000       14.305087708074      45.516187395963      29.910637083852
       121    1   1.000000       14.305087708074      45.516187395963      40.314337916148
       122    1   1.000000       14.305087708074      45.516187395963      50.718037812111
       123    1   1.000000       14.305087708074      45.516187395963      61.121737708074
       124    1   1.000000       14.305087708074      45.516187395963      71.525437604037
       125    1   1.000000       14.305087708074      45.516187395963      81.929137500000
       126    1   1.000000       14.305087708074      45.516187395963      92.332837395963
       127    1   1.000000       14.305087708074      55.919887291926       9.103237291926
       128    1   1.000000       14.305087708074      55.919887291926      19.506937187889
       129    1   1.000000       14.305087708074      55.919887291926      29.910637083852
       130    1   1.000000       14.305087708074      55.919887291926      40.314337916148
       131    1   1.000000       14.305087708074      55.919887291926      50.718037812111
       132    1   1.000000       14.305087708074      55.919887291926      61.121737708074
       133    1   1.000000       14.305087708074      55.919887291926      71.525437604037
       134    1   1.000000       14.305087708074      55.919887291926      81.929137500000
       135    1   1.000000       14.305087708074      55.919887291926      92.332837395963
       136    1   1.000000       14.305087708074      66.323587187889       9.103237291926
       137    1   1.000000       14.305087708074      66.323587187889      19.506937187889
       138    1   1.000000       14.305087708074      66.323587187889      29.910637083852
       139    1   1.000000       14.305087708074      66.323587187889      40.314337916148
       140    1   1.000000       14.305087708074      66.323587187889      50.718037812111
       141    1   1.000000       14.305087708074      66.323587187889      61.121737708074
       142    1   1.000000       14.305087708074      66.323587187889      71.525437604037
       143    1   1.000000       14.305087708074      66.323587187889      81.929137500000
       144    1   1.000000       14.305087708074      66.323587187889      92.332837395963
       145    1   1.000000       14.305087708074      76.727287083852       9.103237291926
       146    1   1.000000       14.305087708074      76.727287083852      19.506937187889
       147    1   1.000000       14.305087708074      76.727287083852      29.910637083852
       148    1   1.000000       14.305087708074      76.727287083852      40.314337916148
       149    1   1.000000       14.305087708074      76.727287083852      50.718037812111
       150    1   1.000000       14.305087708074      76.727287083852      61.121737708074
       151    1   1.000000       14.305087708074      76.727287083852      71.525437604037
       152    1   1.000000       14.305087708074      76.727287083852      81.929137500000
       153    1   1.000000       14.305087708074      76.727287083852      92.332837395963
       154    1   1.000000       14.305087708074      87.130987916148       9.103237291926
       155    1   1.000000       14.305087708074      87.130987916148      19.506937187889
       156    1   1.000000       14.305087708074      87.130987916148      29.910637083852
       157    1   1.000000       14.305087708074      87.130987916148      40.314337916148
       158    1   1.000000       14.305087708074      87.130987916148      50.718037812111
       159    1   1.000000       14.305087708074      87.130987916148      61.121737708074
       160    1   1.000000       14.305087708074      87.130987916148      71.525437604037
       161    1   1.000000       14.305087708074      87.130987916148      81.929137500000
       162    1   1.000000       14.305087708074      87.130987916148      92.332837395963
       163    1   1.000000       24.708787604037       3.901387812111       9.103237291926
       164    1   1.000000       24.708787604037       3.901387812111      19.506937187889
       165    1   1.000000       24.708787604037       3.901387812111      29.910637083852
       166    1   1.000000       24.708787604037       3.901387812111      40.314337916148
       167    1   1.000000       24.708787604037       3.901387812111      50.718037812111
       168    1   1.000000       24.708787604037       3.901387812111      61.121737708074
       169    1   1.000000       24.708787604037       3.901387812111      71.525437604037
       170    1   1.000000       24.708787604037       3.901387812111      81.929137500000
       171    1   1.000000       24.708787604037       3.901387812111      92.332837395963
       172    1   1.000000       24.708787604037      14.305087708074       9.103237291926
       173    1   1.000000       24.708787604037      14.305087708074      19.506937187889
       174    1   1.000000       24.708787604037      14.305087708074      29.910637083852
       175    1   1.000000       24.708787604037      14.305087708074      40.314337916148
       176    1   1.000000       24.708787604037      14.305087708074      50.718037812111
       177    1   1.000000       24.708787604037      14.305087708074      61.121737708074
       178    1   1.000000       24.708787604037      14.305087708074      71.525437604037
       179    1   1.000000       24.708787604037      14.305087708074      81.929137500000
       180    1   1.000000       24.708787604037      14.305087708074      92.332837395963
       181    1   1.000000       24.708787604037      24.708787604037       9.103237291926
       182    1   1.000000       24.708787604037      24.708787604037      19.506937187889
       183    1   1.000000       24.708787604037      24.708787604037      29.910637083852
       184    1   1.000000       24.708787604037      24.708787604037      40.314337916148
       185    1   1.000000       24.708787604037      24.708787604037      50.718037812111
       186    1   1.000000       24.708787604037      24.708787604037      61.121737708074
       187    1   1.000000       24.708787604037      24.708787604037      71.525437604037
       188    1   1.000000       24.708787604037      24.708787604037      81.929137500000
       189    1   1.000000       24.708787604037      24.708787604037      92.332837395963
       190    1   1.000000       24.708787604037      35.112487500000       9.103237291926
       191    1   1.000000       24.708787604037      35.112487500000      19.506937187889
       192    1   1.000000       24.708787604037      35.112487500000      29.910637083852
       193    1   1.000000       24.708787604037      35.112487500000      40.314337916148
       194    1   1.000000       24.708787604037      35.112487500000      50.718037812111
       195    1   1.000000       24.708787604037      35.112487500000      61.121737708074
       196    1   1.000000       24.708787604037      35.112487500000      71.525437604037
       197    1   1.000000       24.708787604037      35.112487500000      81.929137500000
       198    1   1.000000       24.708787604037      35.112487500000      92.332837395963
       199    1   1.000000       24.708787604037      45.516187395963       9.103237291926
       200    1   1.000000       24.708787604037      45.516187395963      19.506937187889
       201    1   1.000000       24.708787604037      45.516187395963      29.910637083852
       202    1   1.000000       24.708787604037      45.516187395963      40.314337916148
       203    1   1.000000       24.708787604037      45.516187395963      50.718037812111
       204    1   1.000000       24.708787604037      45.516187395963      61.121737708074
       205    1   1.000000       24.708787604037      45.516187395963      71.525437604037
       206    1   1.000000       24.708787604037      45.516187395963      81.929137500000
       207    1   1.000000       24.708787604037      45.516187395963      92.332837395963
       208    1   1.000000       24.708787604037      55.919887291926       9.103237291926
       209    1   1.000000       24.708787604037      55.919887291926      19.506937187889
       210    1   1.000000       24.708787604037      55.919887291926      29.910637083852
       211    1   1.000000       24.708787604037      55.919887291926      40.314337916148
       212    1   1.000000       24.708787604037      55.919887291926      50.718037812111
       213    1   1.000000       24.708787604037      55.919887291926      61.121737708074
       214    1   1.000000       24.708787604037      55.919887291926      71.525437604037
       215    1   1.000000       24.708787604037      55.919887291926      81.929137500000
       216    1   1.000000       24.708787604037      55.919887291926      92.332837395963
       217    1   1.000000       24.708787604037      66.323587187889       9.103237291926
       218    1   1.000000       24.708787604037      66.323587187889      19.506937187889
       219    1   1.000000       24.708787604037      66.323587187889      29.910637083852
       220    1   1.000000       24.708787604037      66.323587187889      40.314337916148
       221    1   1.000000       24.708787604037      66.323587187889      50.718037812111
       222    1   1.000000       24.708787604037      66.323587187889      61.121737708074
       223    1   1.000000       24.708787604037      66.323587187889      71.525437604037
       224    1   1.000000       24.708787604037      66.323587187889      81.929137500000
       225    1   1.000000       24.708787604037      66.323587187889      92.332837395963
       226    1   1.000000       24.708787604037      76.727287083852       9.103237291926
       227    1   1.000000       24.708787604037      76.727287083852      19.506937187889
       228    1   1.000000       24.708787604037      76.727287083852      29.910637083852
       229    1   1.000000       24.708787604037      76.727287083852      40.314337916148
       230    1   1.000000       24.708787604037      76.727287083852      50.718037812111
       231    1   1.000000       24.708787604037      76.727287083852      61.121737708074
       232    1   1.000000       24.708787604037      76.727287083852      71.525437604037
       233    1   1.000000       24.708787604037      76.727287083852      81.929137500000
       234    1   1.000000       24.708787604037      76.727287083852      92.332837395963
       235    1   1.000000       24.708787604037      87.130987916148       9.103237291926
       236    1   1.000000       24.708787604037      87.130987916148      19.506937187889
       237    1   1.000000       24.708787604037      87.130987916148      29.910637083852
       238    1   1.000000       24.708787604037      87.130987916148      40.314337916148
       239    1   1.000000       24.708787604037      87.130987916148      50.718037812111
       240    1   1.000000       24.708787604037      87.130987916148      61.121737708074
       241    1   1.000000       24.708787604037      87.130987916148      71.525437604037
       242    1   1.000000       24.708787604037      87.130987916148      81.929137500000
       243    1   1.000000       24.708787604037      87.130987916148      92.332837395963
       244    1   1.000000       35.112487500000       3.901387812111       9.103237291926
       245    1   1.000000       35.112487500000       3.901387812111      19.506937187889
       246    1   1.000000       35.112487500000       3.901387812111      29.910637083852
       247    1   1.000000       35.112487500000       3.901387812111      40.314337916148
       248    1   1.000000       35.112487500000       3.901387812111      50.718037812111
       249    1   1.000000       35.112487500000       3.901387812111      61.121737708074
       250    1   1.000000       35.112487500000       3.901387812111      71.525437604037
       251    1   1.000000       35.112487500000       3.901387812111      81.929137500000
       252    1   1.000000       35.112487500000       3.901387812111      92.332837395963
       253    1   1.000000       35.112487500000      14.305087708074       9.103237291926
       254    1   1.000000       35.112487500000      14.305087708074      19.506937187889
       255    1   1.000000       35.112487500000      14.305087708074      29.910637083852
       256    1   1.000000       35.112487500000      14.305087708074      40.314337916148
       257    1   1.000000       35.112487500000      14.305087708074      50.718037812111
       258    1   1.000000       35.112487500000      14.305087708074      61.121737708074
       259    1   1.000000       35.112487500000      14.305087708074      71.525437604037
       260    1   1.000000       35.112487500000      14.305087708074      81.929137500000
       261    1   1.000000       35.112487500000      14.305087708074      92.332837395963
       262    1   1.000000       35.112487500000      24.708787604037       9.103237291926
       263    1   1.000000       35.112487500000      24.708787604037      19.506937187889
       264    1   1.000000       35.112487500000      24.708787604037      29.910637083852
       265    1   1.000000       35.112487500000      24.708787604037      40.314337916148
       266    1   1.000000       35.112487500000      24.708787604037      50.718037812111
       267    1   1.000000       35.112487500000      24.708787604037      61.121737708074
       268    1   1.000000       35.112487500000      24.708787604037      71.525437604037
       269    1   1.000000       35.112487500000      24.708787604037      81.929137500000
       270    1   1.000000       35.112487500000      24.708787604037      92.332837395963
       271    1   1.000000       35.112487500000      35.112487500000       9.103237291926
       272    1   1.000000       35.112487500000      35.112487500000      19.506937187889
       273    1   1.000000       35.112487500000      35.112487500000      29.910637083852
       274    1   1.000000       35.112487500000      35.112487500000      40.314337916148
       275    1   1.000000       35.112487500000      35.112487500000      50.718037812111
       276    1   1.000000       35.112487500000      35.112487500000      61.121737708074
       277    1   1.000000       35.112487500000      35.112487500000      71.525437604037
       278    1   1.000000       35.112487500000      35.112487500000      81.929137500000
       279    1   1.000000       35.112487500000      35.112487500000      92.332837395963
       280    1   1.000000       35.112487500000      45.516187395963       9.103237291926
       281    1   1.000000       35.112487500000      45.516187395963      19.506937187889
       282    1   1.000000       35.112487500000      45.516187395963      29.910637083852
       283    1   1.000000       35.112487500000      45.516187395963      40.314337916148
       284    1   1.000000       35.112487500000      45.516187395963      50.718037812111
       285    1   1.000000       35.112487500000      45.516187395963      61.121737708074
       286    1   1.000000       35.112487500000      45.516187395963      71.525437604037
       287    1   1.000000       35.112487500000      45.516187395963      81.929137500000
       288    1   1.000000       35.112487500000      45.516187395963      92.332837395963
       289    1   1.000000       35.112487500000      55.919887291926       9.103237291926
       290    1   1.000000       35.112487500000      55.919887291926      19.506937187889
       291    1   1.000000       35.112487500000      55.919887291926      29.910637083852
       292    1   1.000000       35.112487500000      55.919887291926      40.314337916148
       293    1   1.000000       35.112487500000      55.919887291926      50.718037812111
       294    1   1.000000       35.112487500000      55.919887291926      61.121737708074
       295    1   1.000000       35.112487500000      55.919887291926      71.525437604037
       296    1   1.000000       35.112487500000      55.919887291926      81.929137500000
       297    1   1.000000       35.112487500000      55.919887291926      92.332837395963
       298    1   1.000000       35.112487500000      66.323587187889       9.103237291926
       299    1   1.000000       35.112487500000      66.323587187889      19.506937187889
       300    1   1.000000       35.112487500000      66.323587187889      29.910637083852
       301    1   1.000000       35.112487500000      66.323587187889      40.314337916148
       302    1   1.000000       35.112487500000      66.323587187889      50.718037812111
       303    1   1.000000       35.112487500000      66.323587187889      61.121737708074
       304    1   1.000000       35.112487500000      66.323587187889      71.525437604037
       305    1   1.000000       35.112487500000      66.323587187889      81.929137500000
       306    1   1.000000       35.112487500000      66.323587187889      92.332837395963
       307    1   1.000000       35.112487500000      76.727287083852       9.103237291926
       308    1   1.000000       35.112487500000      76.727287083852      19.506937187889
       309    1   1.000000       35.112487500000      76.727287083852      29.910637083852
       310    1   1.000000       35.112487500000      76.727287083852      40.314337916148
       311    1   1.000000       35.112487500000      76.727287083852      50.718037812111
       312    1   1.000000       35.112487500000      76.727287083852      61.121737708074
       313    1   1.000000       35.112487500000      76.727287083852      71.525437604037
       314    1   1.000000       35.112487500000      76.727287083852      81.929137500000
       315    1   1.000000       35.112487500000      76.727287083852      92.332837395963
       316    1   1.000000       35.112487500000      87.130987916148       9.103237291926
       317    1   1.000000       35.112487500000      87.130987916148      19.506937187889
       318    1   1.000000       35.112487500000      87.130987916148      29.910637083852
       319    1   1.000000       35.112487500000      87.130987916148      40.314337916148
       320    1   1.000000       35.112487500000      87.130987916148      50.718037812111
       321    1   1.000000       35.112487500000      87.130987916148      61.121737708074
       322    1   1.000000       35.112487500000      87.130987916148      71.525437604037
       323    1   1.000000       35.112487500000      87.130987916148      81.929137500000
       324    1   1.000000       35.112487500000      87.130987916148      92.332837395963
       325    1   1.000000       45.516187395963       3.901387812111       9.103237291926