 # Li12393 Sc3645 Cl23328
 
       39366  atoms
           3  atom types
 
      0.000000000000      92.522656980000  xlo xhi
      0.000000000000      92.819769138398  ylo yhi
      0.000000000000      92.583921541819  zlo zhi
     -0.095230200886      -0.293316986746      -0.265415357069  xy xz yz
 
Masses
 
            1   6.94000000              # Li
            2   44.95591200             # Sc
            3   35.45000000             # Cl
 
Atoms # charge
 
         1    1   1.000000        3.797088529372       3.813445492364       9.084604726734
         2    1   1.000000        3.764497753393       3.783954897429      19.371707017399
         3    1   1.000000        3.731906977414       3.754464302494      29.658809308063
         4    1   1.000000        3.699316201434       3.724973707559      39.945911598727
         5    1   1.000000        3.666725425455       3.695483112624      50.233013889392
         6    1   1.000000        3.634134649476       3.665992517689      60.520116180056
         7    1   1.000000        3.601543873496       3.636501922754      70.807218470721
         8    1   1.000000        3.568953094584       3.607011325164      81.094321687224
         9    1   1.000000        3.536362318605       3.577520730229      91.381423977889
        10    1   1.000000        3.786507396046      14.126753071275       9.084604726734
        11    1   1.000000        3.753916620067      14.097262476340      19.371707017399
        12    1   1.000000        3.721325844088      14.067771881405      29.658809308063
        13    1   1.000000        3.688735068108      14.038281286470      39.945911598727
        14    1   1.000000        3.656144292129      14.008790691535      50.233013889392
        15    1   1.000000        3.623553516150      13.979300096600      60.520116180056
        16    1   1.000000        3.590962740171      13.949809501665      70.807218470721
        17    1   1.000000        3.558371961258      13.920318904076      81.094321687224
        18    1   1.000000        3.525781185279      13.890828309141      91.381423977889
        19    1   1.000000        3.775926262720      24.440060650186       9.084604726734
        20    1   1.000000        3.743335486741      24.410570055251      19.371707017399
        21    1   1.000000        3.710744710762      24.381079460316      29.658809308063
        22    1   1.000000        3.678153934782      24.351588865381      39.945911598727
        23    1   1.000000        3.645563158803      24.322098270446      50.233013889392
        24    1   1.000000        3.612972382824      24.292607675511      60.520116180056
        25    1   1.000000        3.580381606845      24.263117080576      70.807218470721
        26    1   1.000000        3.547790827932      24.233626482987      81.094321687224
        27    1   1.000000        3.515200051953      24.204135888052      91.381423977889
        28    1   1.000000        3.765345129394      34.753368229097       9.084604726734
        29    1   1.000000        3.732754353415      34.723877634162      19.371707017399
        30    1   1.000000        3.700163577436      34.694387039227      29.658809308063
        31    1   1.000000        3.667572801456      34.664896444292      39.945911598727
        32    1   1.000000        3.634982025477      34.635405849357      50.233013889392
        33    1   1.000000        3.602391249498      34.605915254422      60.520116180056
        34    1   1.000000        3.569800473519      34.576424659487      70.807218470721
        35    1   1.000000        3.537209694606      34.546934061898      81.094321687224
        36    1   1.000000        3.504618918627      34.517443466963      91.381423977889
        37    1   1.000000        3.754763996068      45.066675808008       9.084604726734
        38    1   1.000000        3.722173220089      45.037185213073      19.371707017399
        39    1   1.000000        3.689582444110      45.007694618138      29.658809308063
        40    1   1.000000        3.656991668130      44.978204023203      39.945911598727
        41    1   1.000000        3.624400892151      44.948713428268      50.233013889392
        42    1   1.000000        3.591810116172      44.919222833333      60.520116180056
        43    1   1.000000        3.559219340193      44.889732238398      70.807218470721
        44    1   1.000000        3.526628561280      44.860241640809      81.094321687224
        45    1   1.000000        3.494037785301      44.830751045874      91.381423977889
        46    1   1.000000        3.744182862742      55.379983386920       9.084604726734
        47    1   1.000000        3.711592086763      55.350492791985      19.371707017399
        48    1   1.000000        3.679001310784      55.321002197050      29.658809308063
        49    1   1.000000        3.646410534804      55.291511602115      39.945911598727
        50    1   1.000000        3.613819758825      55.262021007180      50.233013889392
        51    1   1.000000        3.581228982846      55.232530412245      60.520116180056
        52    1   1.000000        3.548638206867      55.203039817310      70.807218470721
        53    1   1.000000        3.516047427954      55.173549219720      81.094321687224
        54    1   1.000000        3.483456651975      55.144058624785      91.381423977889
        55    1   1.000000        3.733601729416      65.693290965831       9.084604726734
        56    1   1.000000        3.701010953437      65.663800370896      19.371707017399
        57    1   1.000000        3.668420177458      65.634309775961      29.658809308063
        58    1   1.000000        3.635829401478      65.604819181026      39.945911598727
        59    1   1.000000        3.603238625499      65.575328586091      50.233013889392
        60    1   1.000000        3.570647849520      65.545837991156      60.520116180056
        61    1   1.000000        3.538057073541      65.516347396221      70.807218470721
        62    1   1.000000        3.505466294628      65.486856798632      81.094321687224
        63    1   1.000000        3.472875518649      65.457366203697      91.381423977889
        64    1   1.000000        3.723020596090      76.006598544742       9.084604726734
        65    1   1.000000        3.690429820111      75.977107949807      19.371707017399
        66    1   1.000000        3.657839044132      75.947617354872      29.658809308063
        67    1   1.000000        3.625248268152      75.918126759937      39.945911598727
        68    1   1.000000        3.592657492173      75.888636165002      50.233013889392
        69    1   1.000000        3.560066716194      75.859145570067      60.520116180056
        70    1   1.000000        3.527475940215      75.829654975132      70.807218470721
        71    1   1.000000        3.494885161302      75.800164377543      81.094321687224
        72    1   1.000000        3.462294385323      75.770673782608      91.381423977889
        73    1   1.000000        3.712439462764      86.319906123653       9.084604726734
        74    1   1.000000        3.679848686785      86.290415528718      19.371707017399
        75    1   1.000000        3.647257910806      86.260924933783      29.658809308063
        76    1   1.000000        3.614667134826      86.231434338848      39.945911598727
        77    1   1.000000        3.582076358847      86.201943743913      50.233013889392
        78    1   1.000000        3.549485582868      86.172453148978      60.520116180056
        79    1   1.000000        3.516894806889      86.142962554043      70.807218470721
        80    1   1.000000        3.484304027976      86.113471956454      81.094321687224
        81    1   1.000000        3.451713251997      86.083981361519      91.381423977889
        82    1   1.000000       14.077383646569       3.813445492364       9.084604726734
        83    1   1.000000       14.044792870590       3.783954897429      19.371707017399
        84    1   1.000000       14.012202094611       3.754464302494      29.658809308063
        85    1   1.000000       13.979611318631       3.724973707559      39.945911598727
        86    1   1.000000       13.947020542652       3.695483112624      50.233013889392
        87    1   1.000000       13.914429766673       3.665992517689      60.520116180056
        88    1   1.000000       13.881838990694       3.636501922754      70.807218470721
        89    1   1.000000       13.849248211781       3.607011325164      81.094321687224
        90    1   1.000000       13.816657435802       3.577520730229      91.381423977889
        91    1   1.000000       14.066802513243      14.126753071275       9.084604726734
        92    1   1.000000       14.034211737264      14.097262476340      19.371707017399
        93    1   1.000000       14.001620961285      14.067771881405      29.658809308063
        94    1   1.000000       13.969030185305      14.038281286470      39.945911598727
        95    1   1.000000       13.936439409326      14.008790691535      50.233013889392
        96    1   1.000000       13.903848633347      13.979300096600      60.520116180056
        97    1   1.000000       13.871257857368      13.949809501665      70.807218470721
        98    1   1.000000       13.838667078455      13.920318904076      81.094321687224
        99    1   1.000000       13.806076302476      13.890828309141      91.381423977889
       100    1   1.000000       14.056221379917      24.440060650186       9.084604726734
       101    1   1.000000       14.023630603938      24.410570055251      19.371707017399
       102    1   1.000000       13.991039827959      24.381079460316      29.658809308063
       103    1   1.000000       13.958449051979      24.351588865381      39.945911598727
       104    1   1.000000       13.925858276000      24.322098270446      50.233013889392
       105    1   1.000000       13.893267500021      24.292607675511      60.520116180056
       106    1   1.000000       13.860676724042      24.263117080576      70.807218470721
       107    1   1.000000       13.828085945129      24.233626482987      81.094321687224
       108    1   1.000000       13.795495169150      24.204135888052      91.381423977889
       109    1   1.000000       14.045640246591      34.753368229097       9.084604726734
       110    1   1.000000       14.013049470612      34.723877634162      19.371707017399
       111    1   1.000000       13.980458694633      34.694387039227      29.658809308063
       112    1   1.000000       13.947867918653      34.664896444292      39.945911598727
       113    1   1.000000       13.915277142674      34.635405849357      50.233013889392
       114    1   1.000000       13.882686366695      34.605915254422      60.520116180056
       115    1   1.000000       13.850095590716      34.576424659487      70.807218470721
       116    1   1.000000       13.817504811803      34.546934061898      81.094321687224
       117    1   1.000000       13.784914035824      34.517443466963      91.381423977889
       118    1   1.000000       14.035059113265      45.066675808008       9.084604726734
       119    1   1.000000       14.002468337286      45.037185213073      19.371707017399
       120    1   1.000000       13.969877561307      45.007694618138      29.658809308063
       121    1   1.000000       13.937286785327      44.978204023203      39.945911598727
       122    1   1.000000       13.904696009348      44.948713428268      50.233013889392
       123    1   1.000000       13.872105233369      44.919222833333      60.520116180056
       124    1   1.000000       13.839514457390      44.889732238398      70.807218470721
       125    1   1.000000       13.806923678477      44.860241640809      81.094321687224
       126    1   1.000000       13.774332902498      44.830751045874      91.381423977889
       127    1   1.000000       14.024477979939      55.379983386920       9.084604726734
       128    1   1.000000       13.991887203960      55.350492791985      19.371707017399
       129    1   1.000000       13.959296427981      55.321002197050      29.658809308063
       130    1   1.000000       13.926705652001      55.291511602115      39.945911598727
       131    1   1.000000       13.894114876022      55.262021007180      50.233013889392
       132    1   1.000000       13.861524100043      55.232530412245      60.520116180056
       133    1   1.000000       13.828933324064      55.203039817310      70.807218470721
       134    1   1.000000       13.796342545151      55.173549219720      81.094321687224
       135    1   1.000000       13.763751769172      55.144058624785      91.381423977889
       136    1   1.000000       14.013896846613      65.693290965831       9.084604726734
       137    1   1.000000       13.981306070634      65.663800370896      19.371707017399
       138    1   1.000000       13.948715294655      65.634309775961      29.658809308063
       139    1   1.000000       13.916124518675      65.604819181026      39.945911598727
       140    1   1.000000       13.883533742696      65.575328586091      50.233013889392
       141    1   1.000000       13.850942966717      65.545837991156      60.520116180056
       142    1   1.000000       13.818352190738      65.516347396221      70.807218470721
       143    1   1.000000       13.785761411825      65.486856798632      81.094321687224
       144    1   1.000000       13.753170635846      65.457366203697      91.381423977889
       145    1   1.000000       14.003315713287      76.006598544742       9.084604726734
       146    1   1.000000       13.970724937308      75.977107949807      19.371707017399
       147    1   1.000000       13.938134161329      75.947617354872      29.658809308063
       148    1   1.000000       13.905543385349      75.918126759937      39.945911598727
       149    1   1.000000       13.872952609370      75.888636165002      50.233013889392
       150    1   1.000000       13.840361833391      75.859145570067      60.520116180056
       151    1   1.000000       13.807771057412      75.829654975132      70.807218470721
       152    1   1.000000       13.775180278499      75.800164377543      81.094321687224
       153    1   1.000000       13.742589502520      75.770673782608      91.381423977889
       154    1   1.000000       13.992734579961      86.319906123653       9.084604726734
       155    1   1.000000       13.960143803982      86.290415528718      19.371707017399
       156    1   1.000000       13.927553028003      86.260924933783      29.658809308063
       157    1   1.000000       13.894962252023      86.231434338848      39.945911598727
       158    1   1.000000       13.862371476044      86.201943743913      50.233013889392
       159    1   1.000000       13.829780700065      86.172453148978      60.520116180056
       160    1   1.000000       13.797189924086      86.142962554043      70.807218470721
       161    1   1.000000       13.764599145173      86.113471956454      81.094321687224
       162    1   1.000000       13.732008369194      86.083981361519      91.381423977889
       163    1   1.000000       24.357678763766       3.813445492364       9.084604726734
       164    1   1.000000       24.325087987787       3.783954897429      19.371707017399
       165    1   1.000000       24.292497211808       3.754464302494      29.658809308063
       166    1   1.000000       24.259906435828       3.724973707559      39.945911598727
       167    1   1.000000       24.227315659849       3.695483112624      50.233013889392
       168    1   1.000000       24.194724883870       3.665992517689      60.520116180056
       169    1   1.000000       24.162134107891       3.636501922754      70.807218470721
       170    1   1.000000       24.129543328978       3.607011325164      81.094321687224
       171    1   1.000000       24.096952552999       3.577520730229      91.381423977889
       172    1   1.000000       24.347097630440      14.126753071275       9.084604726734
       173    1   1.000000       24.314506854461      14.097262476340      19.371707017399
       174    1   1.000000       24.281916078482      14.067771881405      29.658809308063
       175    1   1.000000       24.249325302502      14.038281286470      39.945911598727
       176    1   1.000000       24.216734526523      14.008790691535      50.233013889392
       177    1   1.000000       24.184143750544      13.979300096600      60.520116180056
       178    1   1.000000       24.151552974565      13.949809501665      70.807218470721
       179    1   1.000000       24.118962195652      13.920318904076      81.094321687224
       180    1   1.000000       24.086371419673      13.890828309141      91.381423977889
       181    1   1.000000       24.336516497114      24.440060650186       9.084604726734
       182    1   1.000000       24.303925721135      24.410570055251      19.371707017399
       183    1   1.000000       24.271334945156      24.381079460316      29.658809308063
       184    1   1.000000       24.238744169176      24.351588865381      39.945911598727
       185    1   1.000000       24.206153393197      24.322098270446      50.233013889392
       186    1   1.000000       24.173562617218      24.292607675511      60.520116180056
       187    1   1.000000       24.140971841239      24.263117080576      70.807218470721
       188    1   1.000000       24.108381062326      24.233626482987      81.094321687224
       189    1   1.000000       24.075790286347      24.204135888052      91.381423977889
       190    1   1.000000       24.325935363788      34.753368229097       9.084604726734
       191    1   1.000000       24.293344587809      34.723877634162      19.371707017399
       192    1   1.000000       24.260753811830      34.694387039227      29.658809308063
       193    1   1.000000       24.228163035850      34.664896444292      39.945911598727
       194    1   1.000000       24.195572259871      34.635405849357      50.233013889392
       195    1   1.000000       24.162981483892      34.605915254422      60.520116180056
       196    1   1.000000       24.130390707913      34.576424659487      70.807218470721
       197    1   1.000000       24.097799929000      34.546934061898      81.094321687224
       198    1   1.000000       24.065209153021      34.517443466963      91.381423977889
       199    1   1.000000       24.315354230462      45.066675808008       9.084604726734
       200    1   1.000000       24.282763454483      45.037185213073      19.371707017399
       201    1   1.000000       24.250172678504      45.007694618138      29.658809308063
       202    1   1.000000       24.217581902524      44.978204023203      39.945911598727
       203    1   1.000000       24.184991126545      44.948713428268      50.233013889392
       204    1   1.000000       24.152400350566      44.919222833333      60.520116180056
       205    1   1.000000       24.119809574587      44.889732238398      70.807218470721
       206    1   1.000000       24.087218795674      44.860241640809      81.094321687224
       207    1   1.000000       24.054628019695      44.830751045874      91.381423977889
       208    1   1.000000       24.304773097136      55.379983386920       9.084604726734
       209    1   1.000000       24.272182321157      55.350492791985      19.371707017399
       210    1   1.000000       24.239591545178      55.321002197050      29.658809308063
       211    1   1.000000       24.207000769198      55.291511602115      39.945911598727
       212    1   1.000000       24.174409993219      55.262021007180      50.233013889392
       213    1   1.000000       24.141819217240      55.232530412245      60.520116180056
       214    1   1.000000       24.109228441261      55.203039817310      70.807218470721
       215    1   1.000000       24.076637662348      55.173549219720      81.094321687224
       216    1   1.000000       24.044046886369      55.144058624785      91.381423977889
       217    1   1.000000       24.294191963810      65.693290965831       9.084604726734
       218    1   1.000000       24.261601187831      65.663800370896      19.371707017399
       219    1   1.000000       24.229010411852      65.634309775961      29.658809308063
       220    1   1.000000       24.196419635872      65.604819181026      39.945911598727
       221    1   1.000000       24.163828859893      65.575328586091      50.233013889392
       222    1   1.000000       24.131238083914      65.545837991156      60.520116180056
       223    1   1.000000       24.098647307935      65.516347396221      70.807218470721
       224    1   1.000000       24.066056529022      65.486856798632      81.094321687224
       225    1   1.000000       24.033465753043      65.457366203697      91.381423977889
       226    1   1.000000       24.283610830484      76.006598544742       9.084604726734
       227    1   1.000000       24.251020054505      75.977107949807      19.371707017399
       228    1   1.000000       24.218429278526      75.947617354872      29.658809308063
       229    1   1.000000       24.185838502546      75.918126759937      39.945911598727
       230    1   1.000000       24.153247726567      75.888636165002      50.233013889392
       231    1   1.000000       24.120656950588      75.859145570067      60.520116180056
       232    1   1.000000       24.088066174609      75.829654975132      70.807218470721
       233    1   1.000000       24.055475395696      75.800164377543      81.094321687224
       234    1   1.000000       24.022884619717      75.770673782608      91.381423977889
       235    1   1.000000       24.273029697158      86.319906123653       9.084604726734
       236    1   1.000000       24.240438921179      86.290415528718      19.371707017399
       237    1   1.000000       24.207848145200      86.260924933783      29.658809308063
       238    1   1.000000       24.175257369220      86.231434338848      39.945911598727
       239    1   1.000000       24.142666593241      86.201943743913      50.233013889392
       240    1   1.000000       24.110075817262      86.172453148978      60.520116180056
       241    1   1.000000       24.077485041283      86.142962554043      70.807218470721
       242    1   1.000000       24.044894262370      86.113471956454      81.094321687224
       243    1   1.000000       24.012303486391      86.083981361519      91.381423977889
       244    1   1.000000       34.637973880963       3.813445492364       9.084604726734
       245    1   1.000000       34.605383104984       3.783954897429      19.371707017399
       246    1   1.000000       34.572792329005       3.754464302494      29.658809308063
       247    1   1.000000       34.540201553025       3.724973707559      39.945911598727
       248    1   1.000000       34.507610777046       3.695483112624      50.233013889392
       249    1   1.000000       34.475020001067       3.665992517689      60.520116180056
       250    1   1.000000       34.442429225088       3.636501922754      70.807218470721
       251    1   1.000000       34.409838446175       3.607011325164      81.094321687224
       252    1   1.000000       34.377247670196       3.577520730229      91.381423977889
       253    1   1.000000       34.627392747637      14.126753071275       9.084604726734
       254    1   1.000000       34.594801971658      14.097262476340      19.371707017399
       255    1   1.000000       34.562211195679      14.067771881405      29.658809308063
       256    1   1.000000       34.529620419699      14.038281286470      39.945911598727
       257    1   1.000000       34.497029643720      14.008790691535      50.233013889392
       258    1   1.000000       34.464438867741      13.979300096600      60.520116180056
       259    1   1.000000       34.431848091762      13.949809501665      70.807218470721
       260    1   1.000000       34.399257312849      13.920318904076      81.094321687224
       261    1   1.000000       34.366666536870      13.890828309141      91.381423977889
       262    1   1.000000       34.616811614311      24.440060650186       9.084604726734
       263    1   1.000000       34.584220838332      24.410570055251      19.371707017399
       264    1   1.000000       34.551630062353      24.381079460316      29.658809308063
       265    1   1.000000       34.519039286373      24.351588865381      39.945911598727
       266    1   1.000000       34.486448510394      24.322098270446      50.233013889392
       267    1   1.000000       34.453857734415      24.292607675511      60.520116180056
       268    1   1.000000       34.421266958436      24.263117080576      70.807218470721
       269    1   1.000000       34.388676179523      24.233626482987      81.094321687224
       270    1   1.000000       34.356085403544      24.204135888052      91.381423977889
       271    1   1.000000       34.606230480985      34.753368229097       9.084604726734
       272    1   1.000000       34.573639705006      34.723877634162      19.371707017399
       273    1   1.000000       34.541048929027      34.694387039227      29.658809308063
       274    1   1.000000       34.508458153047      34.664896444292      39.945911598727
       275    1   1.000000       34.475867377068      34.635405849357      50.233013889392
       276    1   1.000000       34.443276601089      34.605915254422      60.520116180056
       277    1   1.000000       34.410685825110      34.576424659487      70.807218470721
       278    1   1.000000       34.378095046197      34.546934061898      81.094321687224
       279    1   1.000000       34.345504270218      34.517443466963      91.381423977889
       280    1   1.000000       34.595649347659      45.066675808008       9.084604726734
       281    1   1.000000       34.563058571680      45.037185213073      19.371707017399
       282    1   1.000000       34.530467795701      45.007694618138      29.658809308063
       283    1   1.000000       34.497877019721      44.978204023203      39.945911598727
       284    1   1.000000       34.465286243742      44.948713428268      50.233013889392
       285    1   1.000000       34.432695467763      44.919222833333      60.520116180056
       286    1   1.000000       34.400104691784      44.889732238398      70.807218470721
       287    1   1.000000       34.367513912871      44.860241640809      81.094321687224
       288    1   1.000000       34.334923136892      44.830751045874      91.381423977889
       289    1   1.000000       34.585068214333      55.379983386920       9.084604726734
       290    1   1.000000       34.552477438354      55.350492791985      19.371707017399
       291    1   1.000000       34.519886662375      55.321002197050      29.658809308063
       292    1   1.000000       34.487295886395      55.291511602115      39.945911598727
       293    1   1.000000       34.454705110416      55.262021007180      50.233013889392
       294    1   1.000000       34.422114334437      55.232530412245      60.520116180056
       295    1   1.000000       34.389523558458      55.203039817310      70.807218470721
       296    1   1.000000       34.356932779545      55.173549219720      81.094321687224
       297    1   1.000000       34.324342003566      55.144058624785      91.381423977889
       298    1   1.000000       34.574487081007      65.693290965831       9.084604726734
       299    1   1.000000       34.541896305028      65.663800370896      19.371707017399
       300    1   1.000000       34.509305529049      65.634309775961      29.658809308063
       301    1   1.000000       34.476714753070      65.604819181026      39.945911598727
       302    1   1.000000       34.444123977090      65.575328586091      50.233013889392
       303    1   1.000000       34.411533201111      65.545837991156      60.520116180056
       304    1   1.000000       34.378942425132      65.516347396221      70.807218470721
       305    1   1.000000       34.346351646219      65.486856798632      81.094321687224
       306    1   1.000000       34.313760870240      65.457366203697      91.381423977889
       307    1   1.000000       34.563905947681      76.006598544742       9.084604726734
       308    1   1.000000       34.531315171702      75.977107949807      19.371707017399
       309    1   1.000000       34.498724395723      75.947617354872      29.658809308063
       310    1   1.000000       34.466133619744      75.918126759937      39.945911598727
       311    1   1.000000       34.433542843764      75.888636165002      50.233013889392
       312    1   1.000000       34.400952067785      75.859145570067      60.520116180056
       313    1   1.000000       34.368361291806      75.829654975132      70.807218470721
       314    1   1.000000       34.335770512893      75.800164377543      81.094321687224
       315    1   1.000000       34.303179736914      75.770673782608      91.381423977889
       316    1   1.000000       34.553324814355      86.319906123653       9.084604726734
       317    1   1.000000       34.520734038376      86.290415528718      19.371707017399
       318    1   1.000000       34.488143262397      86.260924933783      29.658809308063
       319    1   1.000000       34.455552486418      86.231434338848      39.945911598727
       320    1   1.000000       34.422961710438      86.201943743913      50.233013889392
       321    1   1.000000       34.390370934459      86.172453148978      60.520116180056
       322    1   1.000000       34.357780158480      86.142962554043      70.807218470721
       323    1   1.000000       34.325189379567      86.113471956454      81.094321687224
       324    1   1.000000       34.292598603588      86.083981361519      91.381423977889