 # Na729 Cl729
 
        1458  atoms
           2  atom types
 
      0.000000000000      36.221718780000  xlo xhi
      0.000000000000      31.368928632216  ylo yhi
      0.000000000000      29.574909539196  zlo zhi
