 # Li459 Sc135 Cl864
 
        1458  atoms
           3  atom types
 
      0.000000000000      31.211100000000  xlo xhi
      0.000000000000      31.211100000000  ylo yhi
      0.000000000000      31.211100000000  zlo zhi
 
Masses
 
            1   6.94000000              # Li
            2   44.95591200             # Sc
            3   35.45000000             # Cl
 
Atoms # charge
 
         1    1   1.000000        3.901387500000       3.901387500000       9.103237604037
         2    1   1.000000        3.901387500000       3.901387500000      19.506937500000
         3    1   1.000000        3.901387500000       3.901387500000      29.910637395963
         4    1   1.000000        3.901387500000      14.305087395963       9.103237604037
         5    1   1.000000        3.901387500000      14.305087395963      19.506937500000
         6    1   1.000000        3.901387500000      14.305087395963      29.910637395963
         7    1   1.000000        3.901387500000      24.708787604037       9.103237604037
         8    1   1.000000        3.901387500000      24.708787604037      19.506937500000
         9    1   1.000000        3.901387500000      24.708787604037      29.910637395963
        10    1   1.000000       14.305087395963       3.901387500000       9.103237604037
        11    1   1.000000       14.305087395963       3.901387500000      19.506937500000
        12    1   1.000000       14.305087395963       3.901387500000      29.910637395963
        13    1   1.000000       14.305087395963      14.305087395963       9.103237604037
        14    1   1.000000       14.305087395963      14.305087395963      19.506937500000
        15    1   1.000000       14.305087395963      14.305087395963      29.910637395963
        16    1   1.000000       14.305087395963      24.708787604037       9.103237604037
        17    1   1.000000       14.305087395963      24.708787604037      19.506937500000
        18    1   1.000000       14.305087395963      24.708787604037      29.910637395963
        19    1   1.000000       24.708787604037       3.901387500000       9.103237604037
        20    1   1.000000       24.708787604037       3.901387500000      19.506937500000
        21    1   1.000000       24.708787604037       3.901387500000      29.910637395963
        22    1   1.000000       24.708787604037      14.305087395963       9.103237604037
        23    1   1.000000       24.708787604037      14.305087395963      19.506937500000
        24    1   1.000000       24.708787604037      14.305087395963      29.910637395963
        25    1   1.000000       24.708787604037      24.708787604037       9.103237604037
        26    1   1.000000       24.708787604037      24.708787604037      19.506937500000
        27    1   1.000000       24.708787604037      24.708787604037      29.910637395963
        28    1   1.000000        2.600924895963       2.600924895963       0.000000000000
        29    1   1.000000        2.600924895963       2.600924895963      10.403699895963
        30    1   1.000000        2.600924895963       2.600924895963      20.807400104037
        31    1   1.000000        2.600924895963      13.004625104037      31.211100000000
        32    1   1.000000        2.600924895963      13.004625104037      10.403699895963
        33    1   1.000000        2.600924895963      13.004625104037      20.807400104037
        34    1   1.000000        2.600924895963      23.408325000000      31.211100000000
        35    1   1.000000        2.600924895963      23.408325000000      10.403699895963
        36    1   1.000000        2.600924895963      23.408325000000      20.807400104037
        37    1   1.000000       13.004625104037       2.600924895963      31.211100000000
        38    1   1.000000       13.004625104037       2.600924895963      10.403699895963
        39    1   1.000000       13.004625104037       2.600924895963      20.807400104037
        40    1   1.000000       13.004625104037      13.004625104037       0.000000000000
        41    1   1.000000       13.004625104037      13.004625104037      10.403699895963
        42    1   1.000000       13.004625104037      13.004625104037      20.807400104037
        43    1   1.000000       13.004625104037      23.408325000000       0.000000000000
        44    1   1.000000       13.004625104037      23.408325000000      10.403699895963
        45    1   1.000000       13.004625104037      23.408325000000      20.807400104037
        46    1   1.000000       23.408325000000       2.600924895963      31.211100000000
        47    1   1.000000       23.408325000000       2.600924895963      10.403699895963
        48    1   1.000000       23.408325000000       2.600924895963      20.807400104037
        49    1   1.000000       23.408325000000      13.004625104037       0.000000000000
        50    1   1.000000       23.408325000000      13.004625104037      10.403699895963
        51    1   1.000000       23.408325000000      13.004625104037      20.807400104037
        52    1   1.000000       23.408325000000      23.408325000000      31.211100000000
        53    1   1.000000       23.408325000000      23.408325000000      10.403699895963
        54    1   1.000000       23.408325000000      23.408325000000      20.807400104037
        55    1   1.000000        2.600924895963       5.201850104037       7.802775000000
        56    1   1.000000        2.600924895963       5.201850104037      18.206474895963
        57    1   1.000000        2.600924895963       5.201850104037      28.610175104037
        58    1   1.000000        2.600924895963      15.605550000000       7.802775000000
        59    1   1.000000        2.600924895963      15.605550000000      18.206474895963
        60    1   1.000000        2.600924895963      15.605550000000      28.610175104037
        61    1   1.000000        2.600924895963      26.009249895963       7.802775000000
        62    1   1.000000        2.600924895963      26.009249895963      18.206474895963
        63    1   1.000000        2.600924895963      26.009249895963      28.610175104037
        64    1   1.000000       13.004625104037       5.201850104037       7.802775000000
        65    1   1.000000       13.004625104037       5.201850104037      18.206474895963
        66    1   1.000000       13.004625104037       5.201850104037      28.610175104037
        67    1   1.000000       13.004625104037      15.605550000000       7.802775000000
        68    1   1.000000       13.004625104037      15.605550000000      18.206474895963
        69    1   1.000000       13.004625104037      15.605550000000      28.610175104037
        70    1   1.000000       13.004625104037      26.009249895963       7.802775000000
        71    1   1.000000       13.004625104037      26.009249895963      18.206474895963
        72    1   1.000000       13.004625104037      26.009249895963      28.610175104037
        73    1   1.000000       23.408325000000       5.201850104037       7.802775000000
        74    1   1.000000       23.408325000000       5.201850104037      18.206474895963
        75    1   1.000000       23.408325000000       5.201850104037      28.610175104037
        76    1   1.000000       23.408325000000      15.605550000000       7.802775000000
        77    1   1.000000       23.408325000000      15.605550000000      18.206474895963
        78    1   1.000000       23.408325000000      15.605550000000      28.610175104037
        79    1   1.000000       23.408325000000      26.009249895963       7.802775000000
        80    1   1.000000       23.408325000000      26.009249895963      18.206474895963
        81    1   1.000000       23.408325000000      26.009249895963      28.610175104037
        82    1   1.000000        5.201850104037       0.000000000000       5.201850104037
        83    1   1.000000        5.201850104037       0.000000000000      15.605550000000
        84    1   1.000000        5.201850104037       0.000000000000      26.009249895963
        85    1   1.000000        5.201850104037      10.403699895963       5.201850104037
        86    1   1.000000        5.201850104037      10.403699895963      15.605550000000
        87    1   1.000000        5.201850104037      10.403699895963      26.009249895963
        88    1   1.000000        5.201850104037      20.807400104037       5.201850104037
        89    1   1.000000        5.201850104037      20.807400104037      15.605550000000
        90    1   1.000000        5.201850104037      20.807400104037      26.009249895963
        91    1   1.000000       15.605550000000       0.000000000000       5.201850104037
        92    1   1.000000       15.605550000000       0.000000000000      15.605550000000
        93    1   1.000000       15.605550000000       0.000000000000      26.009249895963
        94    1   1.000000       15.605550000000      10.403699895963       5.201850104037
        95    1   1.000000       15.605550000000      10.403699895963      15.605550000000
        96    1   1.000000       15.605550000000      10.403699895963      26.009249895963
        97    1   1.000000       15.605550000000      20.807400104037       5.201850104037
        98    1   1.000000       15.605550000000      20.807400104037      15.605550000000
        99    1   1.000000       15.605550000000      20.807400104037      26.009249895963
       100    1   1.000000       26.009249895963       0.000000000000       5.201850104037
       101    1   1.000000       26.009249895963       0.000000000000      15.605550000000
       102    1   1.000000       26.009249895963       0.000000000000      26.009249895963
       103    1   1.000000       26.009249895963      10.403699895963       5.201850104037
       104    1   1.000000       26.009249895963      10.403699895963      15.605550000000
       105    1   1.000000       26.009249895963      10.403699895963      26.009249895963
       106    1   1.000000       26.009249895963      20.807400104037       5.201850104037
       107    1   1.000000       26.009249895963      20.807400104037      15.605550000000
       108    1   1.000000       26.009249895963      20.807400104037      26.009249895963
       109    1   1.000000        5.201850104037       5.201850104037       0.000000000000
       110    1   1.000000        5.201850104037       5.201850104037      10.403699895963
       111    1   1.000000        5.201850104037       5.201850104037      20.807400104037
       112    1   1.000000        5.201850104037      15.605550000000      31.211100000000
       113    1   1.000000        5.201850104037      15.605550000000      10.403699895963
       114    1   1.000000        5.201850104037      15.605550000000      20.807400104037
       115    1   1.000000        5.201850104037      26.009249895963      31.211100000000
       116    1   1.000000        5.201850104037      26.009249895963      10.403699895963
       117    1   1.000000        5.201850104037      26.009249895963      20.807400104037
       118    1   1.000000       15.605550000000       5.201850104037      31.211100000000
       119    1   1.000000       15.605550000000       5.201850104037      10.403699895963
       120    1   1.000000       15.605550000000       5.201850104037      20.807400104037
       121    1   1.000000       15.605550000000      15.605550000000      31.211100000000
       122    1   1.000000       15.605550000000      15.605550000000      10.403699895963
       123    1   1.000000       15.605550000000      15.605550000000      20.807400104037
       124    1   1.000000       15.605550000000      26.009249895963       0.000000000000
       125    1   1.000000       15.605550000000      26.009249895963      10.403699895963
       126    1   1.000000       15.605550000000      26.009249895963      20.807400104037
       127    1   1.000000       26.009249895963       5.201850104037      31.211100000000
       128    1   1.000000       26.009249895963       5.201850104037      10.403699895963
       129    1   1.000000       26.009249895963       5.201850104037      20.807400104037
       130    1   1.000000       26.009249895963      15.605550000000       0.000000000000
       131    1   1.000000       26.009249895963      15.605550000000      10.403699895963
       132    1   1.000000       26.009249895963      15.605550000000      20.807400104037
       133    1   1.000000       26.009249895963      26.009249895963       0.000000000000
       134    1   1.000000       26.009249895963      26.009249895963      10.403699895963
       135    1   1.000000       26.009249895963      26.009249895963      20.807400104037
       136    1   1.000000        1.414903095963       9.103237604037       3.901387500000
       137    1   1.000000        1.414903095963       9.103237604037      14.305087395963
       138    1   1.000000        1.414903095963       9.103237604037      24.708787604037
       139    1   1.000000        1.414903095963      19.506937500000       3.901387500000
       140    1   1.000000        1.414903095963      19.506937500000      14.305087395963
       141    1   1.000000        1.414903095963      19.506937500000      24.708787604037
       142    1   1.000000        1.414903095963      29.910637395963       3.901387500000
       143    1   1.000000        1.414903095963      29.910637395963      14.305087395963
       144    1   1.000000        1.414903095963      29.910637395963      24.708787604037
       145    1   1.000000       11.818603304037       9.103237604037       3.901387500000
       146    1   1.000000       11.818603304037       9.103237604037      14.305087395963
       147    1   1.000000       11.818603304037       9.103237604037      24.708787604037
       148    1   1.000000       11.818603304037      19.506937500000       3.901387500000
       149    1   1.000000       11.818603304037      19.506937500000      14.305087395963
       150    1   1.000000       11.818603304037      19.506937500000      24.708787604037
       151    1   1.000000       11.818603304037      29.910637395963       3.901387500000
       152    1   1.000000       11.818603304037      29.910637395963      14.305087395963
       153    1   1.000000       11.818603304037      29.910637395963      24.708787604037
       154    1   1.000000       22.222303200000       9.103237604037       3.901387500000
       155    1   1.000000       22.222303200000       9.103237604037      14.305087395963
       156    1   1.000000       22.222303200000       9.103237604037      24.708787604037
       157    1   1.000000       22.222303200000      19.506937500000       3.901387500000
       158    1   1.000000       22.222303200000      19.506937500000      14.305087395963
       159    1   1.000000       22.222303200000      19.506937500000      24.708787604037
       160    1   1.000000       22.222303200000      29.910637395963       3.901387500000
       161    1   1.000000       22.222303200000      29.910637395963      14.305087395963
       162    1   1.000000       22.222303200000      29.910637395963      24.708787604037
       163    1   1.000000        2.600924895963       7.802775000000       0.000000000000
       164    1   1.000000        2.600924895963       7.802775000000      10.403699895963
       165    1   1.000000        2.600924895963       7.802775000000      20.807400104037
       166    1   1.000000        2.600924895963      18.206474895963      31.211100000000
       167    1   1.000000        2.600924895963      18.206474895963      10.403699895963
       168    1   1.000000        2.600924895963      18.206474895963      20.807400104037
       169    1   1.000000        2.600924895963      28.610175104037       0.000000000000
       170    1   1.000000        2.600924895963      28.610175104037      10.403699895963
       171    1   1.000000        2.600924895963      28.610175104037      20.807400104037
       172    1   1.000000       13.004625104037       7.802775000000      31.211100000000
       173    1   1.000000       13.004625104037       7.802775000000      10.403699895963
       174    1   1.000000       13.004625104037       7.802775000000      20.807400104037
       175    1   1.000000       13.004625104037      18.206474895963      31.211100000000
       176    1   1.000000       13.004625104037      18.206474895963      10.403699895963
       177    1   1.000000       13.004625104037      18.206474895963      20.807400104037
       178    1   1.000000       13.004625104037      28.610175104037       0.000000000000
       179    1   1.000000       13.004625104037      28.610175104037      10.403699895963
       180    1   1.000000       13.004625104037      28.610175104037      20.807400104037
       181    1   1.000000       23.408325000000       7.802775000000      31.211100000000
       182    1   1.000000       23.408325000000       7.802775000000      10.403699895963
       183    1   1.000000       23.408325000000       7.802775000000      20.807400104037
       184    1   1.000000       23.408325000000      18.206474895963       0.000000000000
       185    1   1.000000       23.408325000000      18.206474895963      10.403699895963
       186    1   1.000000       23.408325000000      18.206474895963      20.807400104037
       187    1   1.000000       23.408325000000      28.610175104037       0.000000000000
       188    1   1.000000       23.408325000000      28.610175104037      10.403699895963
       189    1   1.000000       23.408325000000      28.610175104037      20.807400104037
       190    1   1.000000        2.600924895963       5.201850104037       2.600924895963
       191    1   1.000000        2.600924895963       5.201850104037      13.004625104037
       192    1   1.000000        2.600924895963       5.201850104037      23.408325000000
       193    1   1.000000        2.600924895963      15.605550000000       2.600924895963
       194    1   1.000000        2.600924895963      15.605550000000      13.004625104037
       195    1   1.000000        2.600924895963      15.605550000000      23.408325000000
       196    1   1.000000        2.600924895963      26.009249895963       2.600924895963
       197    1   1.000000        2.600924895963      26.009249895963      13.004625104037
       198    1   1.000000        2.600924895963      26.009249895963      23.408325000000
       199    1   1.000000       13.004625104037       5.201850104037       2.600924895963
       200    1   1.000000       13.004625104037       5.201850104037      13.004625104037
       201    1   1.000000       13.004625104037       5.201850104037      23.408325000000
       202    1   1.000000       13.004625104037      15.605550000000       2.600924895963
       203    1   1.000000       13.004625104037      15.605550000000      13.004625104037
       204    1   1.000000       13.004625104037      15.605550000000      23.408325000000
       205    1   1.000000       13.004625104037      26.009249895963       2.600924895963
       206    1   1.000000       13.004625104037      26.009249895963      13.004625104037
       207    1   1.000000       13.004625104037      26.009249895963      23.408325000000
       208    1   1.000000       23.408325000000       5.201850104037       2.600924895963
       209    1   1.000000       23.408325000000       5.201850104037      13.004625104037
       210    1   1.000000       23.408325000000       5.201850104037      23.408325000000
       211    1   1.000000       23.408325000000      15.605550000000       2.600924895963
       212    1   1.000000       23.408325000000      15.605550000000      13.004625104037
       213    1   1.000000       23.408325000000      15.605550000000      23.408325000000
       214    1   1.000000       23.408325000000      26.009249895963       2.600924895963
       215    1   1.000000       23.408325000000      26.009249895963      13.004625104037
       216    1   1.000000       23.408325000000      26.009249895963      23.408325000000
       217    1   1.000000        7.802775000000       5.201850104037       7.802775000000
       218    1   1.000000        7.802775000000       5.201850104037      18.206474895963
       219    1   1.000000        7.802775000000       5.201850104037      28.610175104037
       220    1   1.000000        7.802775000000      15.605550000000       7.802775000000
       221    1   1.000000        7.802775000000      15.605550000000      18.206474895963
       222    1   1.000000        7.802775000000      15.605550000000      28.610175104037
       223    1   1.000000        7.802775000000      26.009249895963       7.802775000000
       224    1   1.000000        7.802775000000      26.009249895963      18.206474895963
       225    1   1.000000        7.802775000000      26.009249895963      28.610175104037
       226    1   1.000000       18.206474895963       5.201850104037       7.802775000000
       227    1   1.000000       18.206474895963       5.201850104037      18.206474895963
       228    1   1.000000       18.206474895963       5.201850104037      28.610175104037
       229    1   1.000000       18.206474895963      15.605550000000       7.802775000000
       230    1   1.000000       18.206474895963      15.605550000000      18.206474895963
       231    1   1.000000       18.206474895963      15.605550000000      28.610175104037
       232    1   1.000000       18.206474895963      26.009249895963       7.802775000000
       233    1   1.000000       18.206474895963      26.009249895963      18.206474895963
       234    1   1.000000       18.206474895963      26.009249895963      28.610175104037
       235    1   1.000000       28.610175104037       5.201850104037       7.802775000000
       236    1   1.000000       28.610175104037       5.201850104037      18.206474895963
       237    1   1.000000       28.610175104037       5.201850104037      28.610175104037
       238    1   1.000000       28.610175104037      15.605550000000       7.802775000000
       239    1   1.000000       28.610175104037      15.605550000000      18.206474895963
       240    1   1.000000       28.610175104037      15.605550000000      28.610175104037
       241    1   1.000000       28.610175104037      26.009249895963       7.802775000000
       242    1   1.000000       28.610175104037      26.009249895963      18.206474895963
       243    1   1.000000       28.610175104037      26.009249895963      28.610175104037
       244    1   1.000000       31.211100000000       2.600924895963       7.802775000000
       245    1   1.000000       31.211100000000       2.600924895963      18.206474895963
       246    1   1.000000       31.211100000000       2.600924895963      28.610175104037
       247    1   1.000000       31.211100000000      13.004625104037       7.802775000000
       248    1   1.000000       31.211100000000      13.004625104037      18.206474895963
       249    1   1.000000       31.211100000000      13.004625104037      28.610175104037
       250    1   1.000000       31.211100000000      23.408325000000       7.802775000000
       251    1   1.000000       31.211100000000      23.408325000000      18.206474895963
       252    1   1.000000       31.211100000000      23.408325000000      28.610175104037
       253    1   1.000000       10.403699895963       2.600924895963       7.802775000000
       254    1   1.000000       10.403699895963       2.600924895963      18.206474895963
       255    1   1.000000       10.403699895963       2.600924895963      28.610175104037
       256    1   1.000000       10.403699895963      13.004625104037       7.802775000000
       257    1   1.000000       10.403699895963      13.004625104037      18.206474895963
       258    1   1.000000       10.403699895963      13.004625104037      28.610175104037
       259    1   1.000000       10.403699895963      23.408325000000       7.802775000000
       260    1   1.000000       10.403699895963      23.408325000000      18.206474895963
       261    1   1.000000       10.403699895963      23.408325000000      28.610175104037
       262    1   1.000000       20.807400104037       2.600924895963       7.802775000000
       263    1   1.000000       20.807400104037       2.600924895963      18.206474895963
       264    1   1.000000       20.807400104037       2.600924895963      28.610175104037
       265    1   1.000000       20.807400104037      13.004625104037       7.802775000000
       266    1   1.000000       20.807400104037      13.004625104037      18.206474895963
       267    1   1.000000       20.807400104037      13.004625104037      28.610175104037
       268    1   1.000000       20.807400104037      23.408325000000       7.802775000000
       269    1   1.000000       20.807400104037      23.408325000000      18.206474895963
       270    1   1.000000       20.807400104037      23.408325000000      28.610175104037
       271    1   1.000000        2.600924895963       2.600924895963       5.201850104037
       272    1   1.000000        2.600924895963       2.600924895963      15.605550000000
       273    1   1.000000        2.600924895963       2.600924895963      26.009249895963
       274    1   1.000000        2.600924895963      13.004625104037       5.201850104037
       275    1   1.000000        2.600924895963      13.004625104037      15.605550000000
       276    1   1.000000        2.600924895963      13.004625104037      26.009249895963
       277    1   1.000000        2.600924895963      23.408325000000       5.201850104037
       278    1   1.000000        2.600924895963      23.408325000000      15.605550000000
       279    1   1.000000        2.600924895963      23.408325000000      26.009249895963
       280    1   1.000000       13.004625104037       2.600924895963       5.201850104037
       281    1   1.000000       13.004625104037       2.600924895963      15.605550000000
       282    1   1.000000       13.004625104037       2.600924895963      26.009249895963
       283    1   1.000000       13.004625104037      13.004625104037       5.201850104037
       284    1   1.000000       13.004625104037      13.004625104037      15.605550000000
       285    1   1.000000       13.004625104037      13.004625104037      26.009249895963
       286    1   1.000000       13.004625104037      23.408325000000       5.201850104037
       287    1   1.000000       13.004625104037      23.408325000000      15.605550000000
       288    1   1.000000       13.004625104037      23.408325000000      26.009249895963
       289    1   1.000000       23.408325000000       2.600924895963       5.201850104037
       290    1   1.000000       23.408325000000       2.600924895963      15.605550000000
       291    1   1.000000       23.408325000000       2.600924895963      26.009249895963
       292    1   1.000000       23.408325000000      13.004625104037       5.201850104037
       293    1   1.000000       23.408325000000      13.004625104037      15.605550000000
       294    1   1.000000       23.408325000000      13.004625104037      26.009249895963
       295    1   1.000000       23.408325000000      23.408325000000       5.201850104037
       296    1   1.000000       23.408325000000      23.408325000000      15.605550000000
       297    1   1.000000       23.408325000000      23.408325000000      26.009249895963
       298    1   1.000000        7.802775000000       2.600924895963       0.000000000000
       299    1   1.000000        7.802775000000       2.600924895963      10.403699895963
       300    1   1.000000        7.802775000000       2.600924895963      20.807400104037
       301    1   1.000000        7.802775000000      13.004625104037      31.211100000000
       302    1   1.000000        7.802775000000      13.004625104037      10.403699895963
       303    1   1.000000        7.802775000000      13.004625104037      20.807400104037
       304    1   1.000000        7.802775000000      23.408325000000      31.211100000000
       305    1   1.000000        7.802775000000      23.408325000000      10.403699895963
       306    1   1.000000        7.802775000000      23.408325000000      20.807400104037
       307    1   1.000000       18.206474895963       2.600924895963      31.211100000000
       308    1   1.000000       18.206474895963       2.600924895963      10.403699895963
       309    1   1.000000       18.206474895963       2.600924895963      20.807400104037
       310    1   1.000000       18.206474895963      13.004625104037      31.211100000000
       311    1   1.000000       18.206474895963      13.004625104037      10.403699895963
       312    1   1.000000       18.206474895963      13.004625104037      20.807400104037
       313    1   1.000000       18.206474895963      23.408325000000       0.000000000000
       314    1   1.000000       18.206474895963      23.408325000000      10.403699895963
       315    1   1.000000       18.206474895963      23.408325000000      20.807400104037
       316    1   1.000000       28.610175104037       2.600924895963      31.211100000000
       317    1   1.000000       28.610175104037       2.600924895963      10.403699895963
       318    1   1.000000       28.610175104037       2.600924895963      20.807400104037
       319    1   1.000000       28.610175104037      13.004625104037       0.000000000000
       320    1   1.000000       28.610175104037      13.004625104037      10.403699895963
       321    1   1.000000       28.610175104037      13.004625104037      20.807400104037
       322    1   1.000000       28.610175104037      23.408325000000      31.211100000000
       323    1   1.000000       28.610175104037      23.408325000000      10.403699895963
       324    1   1.000000       28.610175104037      23.408325000000      20.807400104037
       325    1   1.000000        7.802775000000       7.802775000000       5.201850104037