 # Na27 Cl27
 
          54  atoms
           2  atom types
 
      0.000000000000      12.073906260000  xlo xhi
      0.000000000000      10.456309544072  ylo yhi
      0.000000000000       9.858303179732  zlo zhi
