********************************************************************************
*                       GENERAL UTILITY LATTICE PROGRAM                        *
*                                 Julian Gale                                  *
*                       Curtin Institute for Computation                       *
*                    School of Molecular and Life Sciences                     *
*                    Curtin University, Western Australia                      *
********************************************************************************
* Version = 5.2.0 * Last modified =   1st June 2020                            *
********************************************************************************
*  optimise     - perform optimisation run                                     *
*  conp         - constant pressure calculation                                *
*  compare      - compare initial and final structures                         *
********************************************************************************

  Job Started  at 13:00.57 28th July       2022                               

  Number of CPUs =     1


  Total number of configurations input =      1

********************************************************************************
*  Input for Configuration =   1                                               *
********************************************************************************

  Formula = Li17Sc5Cl32                                                 

  Number of irreducible atoms/shells =      86


  Total number atoms/shells =      86

  Dimensionality = 3               :  Bulk   



  Cartesian lattice vectors (Angstroms) :

       10.403700    0.000000    0.000000
        0.000000   10.403700    0.000000
        0.000000    0.000000   10.403700

  Cell parameters (Angstroms/Degrees):

  a =      10.4037    alpha =  90.0000
  b =      10.4037    beta  =  90.0000
  c =      10.4037    gamma =  90.0000

  Initial cell volume =        1126.065003 Angs**3

  Temperature of configuration =   0.00     K 

  Pressure of configuration =         0.000 GPa 

  Fractional coordinates of asymmetric unit :

--------------------------------------------------------------------------------
   No.  Atomic       x           y          z         Charge      Occupancy
        Label      (Frac)      (Frac)     (Frac)        (e)         (Frac)  
--------------------------------------------------------------------------------
      1 Li    c    0.375000    0.375000    0.875000     1.00000    1.000000    
      2 Li    c    0.500000 *  0.750000 *  0.250000 *   1.00000    1.000000    
      3 Li    c    0.250000 *  0.750000 *  0.500000 *   1.00000    1.000000    
      4 Li    c    0.750000 *  0.500000 *  0.250000 *   1.00000    1.000000    
      5 Li    c    0.500000 *  0.000000 *  0.500000 *   1.00000    1.000000    
      6 Li    c    0.875000 *  0.875000 *  0.114000 *   1.00000    1.000000    
      7 Li    c    0.500000 *  0.500000 *  0.500000 *   1.00000    1.000000    
      8 Li    c    0.500000 *  0.750000 *  0.750000 *   1.00000    1.000000    
      9 Li    c    0.250000 *  0.750000 *  0.000000 *   1.00000    1.000000    
     10 Li    c    0.250000 *  0.250000 *  0.500000 *   1.00000    1.000000    
     11 Li    c    0.750000 *  0.250000 *  0.000000 *   1.00000    1.000000    
     12 Li    c    0.500000 *  0.250000 *  0.250000 *   1.00000    1.000000    
     13 Li    c    0.000000 *  0.750000 *  0.250000 *   1.00000    1.000000    
     14 Li    c    0.750000 *  0.750000 *  0.500000 *   1.00000    1.000000    
     15 Li    c    0.250000 *  0.000000 *  0.750000 *   1.00000    1.000000    
     16 Li    c    0.750000 *  0.000000 *  0.250000 *   1.00000    1.000000    
     17 Li    c    0.000000 *  0.500000 *  0.000000 *   1.00000    1.000000    
     18 Sc    c    0.250000 *  0.500000 *  0.250000 *   3.00000    1.000000    
     19 Sc    c    0.750000 *  0.500000 *  0.750000 *   3.00000    1.000000    
     20 Sc    c    0.000000 *  0.250000 *  0.750000 *   3.00000    1.000000    
     21 Sc    c    0.500000 *  0.000000 *  0.000000 *   3.00000    1.000000    
     22 Sc    c    0.000000 *  0.000000 *  0.500000 *   3.00000    1.000000    
     23 Cl    c    0.254350 *  0.254350 *  0.254350 *   1.48500    1.000000    
     24 Cl    c    0.745650 *  0.504350 *  0.504350 *   1.48500    1.000000    
     25 Cl    c    0.495650 *  0.995650 *  0.754350 *   1.48500    1.000000    
     26 Cl    c    0.004350 *  0.745650 *  0.004350 *   1.48500    1.000000    
     27 Cl    c    0.254350 *  0.995650 *  0.995650 *   1.48500    1.000000    
     28 Cl    c    0.745650 *  0.745650 *  0.745650 *   1.48500    1.000000    
     29 Cl    c    0.495650 *  0.254350 *  0.495650 *   1.48500    1.000000    
     30 Cl    c    0.004350 *  0.504350 *  0.245650 *   1.48500    1.000000    
     31 Cl    c    0.504350 *  0.745650 *  0.504350 *   1.48500    1.000000    
     32 Cl    c    0.754350 *  0.495650 *  0.995650 *   1.48500    1.000000    
     33 Cl    c    0.004350 *  0.004350 *  0.745650 *   1.48500    1.000000    
     34 Cl    c    0.995650 *  0.254350 *  0.995650 *   1.48500    1.000000    
     35 Cl    c    0.495650 *  0.495650 *  0.254350 *   1.48500    1.000000    
     36 Cl    c    0.245650 *  0.004350 *  0.504350 *   1.48500    1.000000    
     37 Cl    c    0.254350 *  0.754350 *  0.754350 *   1.48500    1.000000    
     38 Cl    c    0.504350 *  0.004350 *  0.245650 *   1.48500    1.000000    
     39 Cl    c    0.745650 *  0.245650 *  0.245650 *   1.48500    1.000000    
     40 Cl    c    0.995650 *  0.495650 *  0.754350 *   1.48500    1.000000    
     41 Cl    c    0.254350 *  0.495650 *  0.495650 *   1.48500    1.000000    
     42 Cl    c    0.745650 *  0.004350 *  0.004350 *   1.48500    1.000000    
     43 Cl    c    0.245650 *  0.504350 *  0.004350 *   1.48500    1.000000    
     44 Cl    c    0.995650 *  0.995650 *  0.254350 *   1.48500    1.000000    
     45 Cl    c    0.504350 *  0.504350 *  0.745650 *   1.48500    1.000000    
     46 Cl    c    0.754350 *  0.995650 *  0.495650 *   1.48500    1.000000    
     47 Cl    c    0.004350 *  0.245650 *  0.504350 *   1.48500    1.000000    
     48 Cl    c    0.495650 *  0.754350 *  0.995650 *   1.48500    1.000000    
     49 Cl    c    0.504350 *  0.245650 *  0.004350 *   1.48500    1.000000    
     50 Cl    c    0.995650 *  0.754350 *  0.495650 *   1.48500    1.000000    
     51 Cl    c    0.754350 *  0.254350 *  0.754350 *   1.48500    1.000000    
     52 Cl    c    0.245650 *  0.745650 *  0.245650 *   1.48500    1.000000    
     53 Cl    c    0.754350 *  0.754350 *  0.254350 *   1.48500    1.000000    
     54 Cl    c    0.245650 *  0.245650 *  0.745650 *   1.48500    1.000000    
     55 Cl    s    0.254350 *  0.254350 *  0.254350 *  -2.48500    1.000000    
     56 Cl    s    0.745650 *  0.504350 *  0.504350 *  -2.48500    1.000000    
     57 Cl    s    0.495650 *  0.995650 *  0.754350 *  -2.48500    1.000000    
     58 Cl    s    0.004350 *  0.745650 *  0.004350 *  -2.48500    1.000000    
     59 Cl    s    0.254350 *  0.995650 *  0.995650 *  -2.48500    1.000000    
     60 Cl    s    0.745650 *  0.745650 *  0.745650 *  -2.48500    1.000000    
     61 Cl    s    0.495650 *  0.254350 *  0.495650 *  -2.48500    1.000000    
     62 Cl    s    0.004350 *  0.504350 *  0.245650 *  -2.48500    1.000000    
     63 Cl    s    0.504350 *  0.745650 *  0.504350 *  -2.48500    1.000000    
     64 Cl    s    0.754350 *  0.495650 *  0.995650 *  -2.48500    1.000000    
     65 Cl    s    0.004350 *  0.004350 *  0.745650 *  -2.48500    1.000000    
     66 Cl    s    0.995650 *  0.254350 *  0.995650 *  -2.48500    1.000000    
     67 Cl    s    0.495650 *  0.495650 *  0.254350 *  -2.48500    1.000000    
     68 Cl    s    0.245650 *  0.004350 *  0.504350 *  -2.48500    1.000000    
     69 Cl    s    0.254350 *  0.754350 *  0.754350 *  -2.48500    1.000000    
     70 Cl    s    0.504350 *  0.004350 *  0.245650 *  -2.48500    1.000000    
     71 Cl    s    0.745650 *  0.245650 *  0.245650 *  -2.48500    1.000000    
     72 Cl    s    0.995650 *  0.495650 *  0.754350 *  -2.48500    1.000000    
     73 Cl    s    0.254350 *  0.495650 *  0.495650 *  -2.48500    1.000000    
     74 Cl    s    0.745650 *  0.004350 *  0.004350 *  -2.48500    1.000000    
     75 Cl    s    0.245650 *  0.504350 *  0.004350 *  -2.48500    1.000000    
     76 Cl    s    0.995650 *  0.995650 *  0.254350 *  -2.48500    1.000000    
     77 Cl    s    0.504350 *  0.504350 *  0.745650 *  -2.48500    1.000000    
     78 Cl    s    0.754350 *  0.995650 *  0.495650 *  -2.48500    1.000000    
     79 Cl    s    0.004350 *  0.245650 *  0.504350 *  -2.48500    1.000000    
     80 Cl    s    0.495650 *  0.754350 *  0.995650 *  -2.48500    1.000000    
     81 Cl    s    0.504350 *  0.245650 *  0.004350 *  -2.48500    1.000000    
     82 Cl    s    0.995650 *  0.754350 *  0.495650 *  -2.48500    1.000000    
     83 Cl    s    0.754350 *  0.254350 *  0.754350 *  -2.48500    1.000000    
     84 Cl    s    0.245650 *  0.745650 *  0.245650 *  -2.48500    1.000000    
     85 Cl    s    0.754350 *  0.754350 *  0.254350 *  -2.48500    1.000000    
     86 Cl    s    0.245650 *  0.245650 *  0.745650 *  -2.48500    1.000000    
--------------------------------------------------------------------------------



********************************************************************************
*  General input information                                                   *
********************************************************************************

  Species output for all configurations : 

--------------------------------------------------------------------------------
  Species    Type    Atomic    Atomic    Charge       Radii (Angs)     Library
                     Number     Mass       (e)     Cova   Ionic  VDW   Symbol
--------------------------------------------------------------------------------
    Li       Core        3       6.94   1.000000   0.680  0.000  1.800          
    Sc       Core       21      44.96   3.000000   1.440  0.000  2.150          
    Cl       Core       17      35.45   1.485000   0.990  0.000  1.650          
    Cl       Shell      17       0.00  -2.485000   0.990  0.000  1.650          
--------------------------------------------------------------------------------


  Lattice summation method               =    Ewald          (3-D)
                                         =    Parry          (2-D)
                                         =    Saunders et al (1-D)
  Accuracy factor for lattice sums       =   12.000


  Analytic derivatives to be used

  Time limit = Infinity

  Maximum range for interatomic potentials =    100000.000000 Angstroms

  General interatomic potentials :

--------------------------------------------------------------------------------
Atom  Types   Potential      Parameter       Value         Units   Cutoffs(Ang)
  1     2                                                            Min /  Max 
--------------------------------------------------------------------------------
Cl   c Cl   s Spring (c-s)  Spring k 2       29.380000    eV*Ang^-2 0.000  0.800
                            Spring k 4       0.0000000    eV*Ang^-4 
--------------------------------------------------------------------------------
Li   c Li   c Buckingham    Buckingham A     360.53000    eV        0.000 12.000
                            Buckingham rho  0.16100000    Ang       
                            Buckingham C     0.0000000    eV*Ang^6  
--------------------------------------------------------------------------------
Li   c Cl   s Buckingham    Buckingham A     421.04000    eV        0.000 12.000
                            Buckingham rho  0.33400000    Ang       
                            Buckingham C     0.0000000    eV*Ang^6  
--------------------------------------------------------------------------------
Sc   c Cl   s Buckingham    Buckingham A     12131.350    eV        0.000 12.000
                            Buckingham rho  0.25070000    Ang       
                            Buckingham C     0.0000000    eV*Ang^6  
--------------------------------------------------------------------------------
Cl   s Cl   s Buckingham    Buckingham A     1227.2000    eV        0.000 12.000
                            Buckingham rho  0.32100000    Ang       
                            Buckingham C     14.530000    eV*Ang^6  
--------------------------------------------------------------------------------

********************************************************************************
*  Output for configuration   1                                                *
********************************************************************************


  Components of energy : 

--------------------------------------------------------------------------------
  Interatomic potentials     =          35.27167975 eV    
  Monopole - monopole (real) =        -210.63359499 eV    
  Monopole - monopole (recip)=        -187.01293127 eV    
  Monopole - monopole (total)=        -397.64652626 eV    
--------------------------------------------------------------------------------
  Total lattice energy       =        -362.37484651 eV    
--------------------------------------------------------------------------------
  Total lattice energy       =          -34963.6333 kJ/(mole unit cells)
--------------------------------------------------------------------------------


  Number of variables =      261

  Maximum number of calculations  =          1000
  Maximum Hessian update interval =            10
  Maximum step size               =   1.000000000
  Maximum parameter tolerance     =   0.000010000
  Maximum function  tolerance     =   0.000010000
  Maximum gradient  tolerance     =   0.001000000
  Maximum gradient  component     =   0.010000000

  Symmetry not applied to optimisation

  Cell parameters to be optimised using strains

  Newton-Raphson optimiser to be used

  BFGS hessian update to be used

  Lower half triangular hessian to be used

  Start of bulk optimisation :

  Cycle:      0 Energy:      -362.374847  Gnorm:      2.620729  CPU:    0.089
  ** Hessian calculated **
  Cycle:      1 Energy:      -391.439756  Gnorm:      0.371224  CPU:    0.155
  ** Hessian calculated **
  Cycle:      2 Energy:      -393.977463  Gnorm:      0.197784  CPU:    0.272
  ** Hessian calculated **
  Cycle:      3 Energy:      -394.280982  Gnorm:      0.114452  CPU:    0.371
  Cycle:      4 Energy:      -394.448057  Gnorm:      0.098711  CPU:    0.431
  Cycle:      5 Energy:      -394.635859  Gnorm:      0.126966  CPU:    0.490
  Cycle:      6 Energy:      -394.858653  Gnorm:      0.129250  CPU:    0.552
  Cycle:      7 Energy:      -395.062515  Gnorm:      0.082292  CPU:    0.602
  Cycle:      8 Energy:      -395.141321  Gnorm:      0.064629  CPU:    0.652
  Cycle:      9 Energy:      -395.218781  Gnorm:      0.067152  CPU:    0.714
  Cycle:     10 Energy:      -395.276998  Gnorm:      0.059669  CPU:    0.775
  Cycle:     11 Energy:      -395.327725  Gnorm:      0.054526  CPU:    0.835
  Cycle:     12 Energy:      -395.368321  Gnorm:      0.052001  CPU:    0.884
  ** Hessian calculated **
  Cycle:     13 Energy:      -395.539472  Gnorm:      0.036364  CPU:    1.016
  Cycle:     14 Energy:      -395.654062  Gnorm:      0.017930  CPU:    1.075
  Cycle:     15 Energy:      -395.671760  Gnorm:      0.010419  CPU:    1.124
  Cycle:     16 Energy:      -395.678923  Gnorm:      0.005944  CPU:    1.173
  Cycle:     17 Energy:      -395.682623  Gnorm:      0.011030  CPU:    1.235
  Cycle:     18 Energy:      -395.695222  Gnorm:      0.041511  CPU:    1.306
  ** Hessian calculated **
  Cycle:     19 Energy:      -395.706232  Gnorm:      0.015127  CPU:    1.406
  Cycle:     20 Energy:      -395.708531  Gnorm:      0.009861  CPU:    1.455
  Cycle:     21 Energy:      -395.709867  Gnorm:      0.009182  CPU:    1.515
  Cycle:     22 Energy:      -395.710793  Gnorm:      0.007242  CPU:    1.564
  Cycle:     23 Energy:      -395.711515  Gnorm:      0.006262  CPU:    1.613
  Cycle:     24 Energy:      -395.711986  Gnorm:      0.006301  CPU:    1.662
  Cycle:     25 Energy:      -395.712517  Gnorm:      0.006431  CPU:    1.711
  Cycle:     26 Energy:      -395.713081  Gnorm:      0.005199  CPU:    1.760
  Cycle:     27 Energy:      -395.713532  Gnorm:      0.005462  CPU:    1.811
  Cycle:     28 Energy:      -395.713983  Gnorm:      0.005264  CPU:    1.871
  ** Hessian calculated **
  Cycle:     29 Energy:      -395.714177  Gnorm:      0.003495  CPU:    1.974
  Cycle:     30 Energy:      -395.714352  Gnorm:      0.003488  CPU:    2.034
  Cycle:     31 Energy:      -395.714530  Gnorm:      0.003712  CPU:    2.083
  Cycle:     32 Energy:      -395.714706  Gnorm:      0.004881  CPU:    2.132
  Cycle:     33 Energy:      -395.714910  Gnorm:      0.003387  CPU:    2.181
  Cycle:     34 Energy:      -395.715101  Gnorm:      0.004061  CPU:    2.230
  Cycle:     35 Energy:      -395.715348  Gnorm:      0.004065  CPU:    2.290
  Cycle:     36 Energy:      -395.715576  Gnorm:      0.003778  CPU:    2.339
  Cycle:     37 Energy:      -395.715844  Gnorm:      0.004515  CPU:    2.399
  Cycle:     38 Energy:      -395.716202  Gnorm:      0.005636  CPU:    2.460
  ** Hessian calculated **
  Cycle:     39 Energy:      -395.716385  Gnorm:      0.002976  CPU:    2.560
  Cycle:     40 Energy:      -395.716506  Gnorm:      0.002815  CPU:    2.631
  Cycle:     41 Energy:      -395.716626  Gnorm:      0.003200  CPU:    2.681
  Cycle:     42 Energy:      -395.716771  Gnorm:      0.003532  CPU:    2.741
  Cycle:     43 Energy:      -395.716880  Gnorm:      0.002264  CPU:    2.790
  Cycle:     44 Energy:      -395.716961  Gnorm:      0.002318  CPU:    2.850
  Cycle:     45 Energy:      -395.717029  Gnorm:      0.002072  CPU:    2.900
  Cycle:     46 Energy:      -395.717086  Gnorm:      0.002182  CPU:    2.949
  Cycle:     47 Energy:      -395.717167  Gnorm:      0.002294  CPU:    3.010
  Cycle:     48 Energy:      -395.717250  Gnorm:      0.002967  CPU:    3.060
  ** Hessian calculated **
  Cycle:     49 Energy:      -395.717312  Gnorm:      0.001991  CPU:    3.160
  Cycle:     50 Energy:      -395.717370  Gnorm:      0.002067  CPU:    3.208
  Cycle:     51 Energy:      -395.717422  Gnorm:      0.002043  CPU:    3.258
  Cycle:     52 Energy:      -395.717486  Gnorm:      0.002209  CPU:    3.307
  Cycle:     53 Energy:      -395.717558  Gnorm:      0.002061  CPU:    3.356
  Cycle:     54 Energy:      -395.717625  Gnorm:      0.002264  CPU:    3.405
  Cycle:     55 Energy:      -395.717690  Gnorm:      0.001634  CPU:    3.464
  Cycle:     56 Energy:      -395.717779  Gnorm:      0.002199  CPU:    3.514
  Cycle:     57 Energy:      -395.717844  Gnorm:      0.002509  CPU:    3.563
  Cycle:     58 Energy:      -395.717948  Gnorm:      0.003891  CPU:    3.614
  ** Hessian calculated **
  Cycle:     59 Energy:      -395.718037  Gnorm:      0.002094  CPU:    3.714
  Cycle:     60 Energy:      -395.718111  Gnorm:      0.002604  CPU:    3.763
  Cycle:     61 Energy:      -395.718183  Gnorm:      0.001920  CPU:    3.823
  Cycle:     62 Energy:      -395.718253  Gnorm:      0.002146  CPU:    3.872
  Cycle:     63 Energy:      -395.718325  Gnorm:      0.001949  CPU:    3.954
  Cycle:     64 Energy:      -395.718382  Gnorm:      0.001986  CPU:    4.003
  Cycle:     65 Energy:      -395.718431  Gnorm:      0.001828  CPU:    4.052
  Cycle:     66 Energy:      -395.718468  Gnorm:      0.001645  CPU:    4.101
  Cycle:     67 Energy:      -395.718513  Gnorm:      0.001869  CPU:    4.161
  Cycle:     68 Energy:      -395.718580  Gnorm:      0.003068  CPU:    4.211
  ** Hessian calculated **
  Cycle:     69 Energy:      -395.718638  Gnorm:      0.001761  CPU:    4.311
  Cycle:     70 Energy:      -395.718688  Gnorm:      0.001611  CPU:    4.371
  Cycle:     71 Energy:      -395.718721  Gnorm:      0.001763  CPU:    4.421
  Cycle:     72 Energy:      -395.718765  Gnorm:      0.001861  CPU:    4.470
  Cycle:     73 Energy:      -395.718815  Gnorm:      0.001863  CPU:    4.529
  Cycle:     74 Energy:      -395.718872  Gnorm:      0.002021  CPU:    4.578
  Cycle:     75 Energy:      -395.718936  Gnorm:      0.001865  CPU:    4.627
  Cycle:     76 Energy:      -395.719002  Gnorm:      0.002417  CPU:    4.676
  Cycle:     77 Energy:      -395.719071  Gnorm:      0.001973  CPU:    4.726
  Cycle:     78 Energy:      -395.719138  Gnorm:      0.003037  CPU:    4.774
  ** Hessian calculated **
  Cycle:     79 Energy:      -395.719199  Gnorm:      0.001944  CPU:    4.877
  Cycle:     80 Energy:      -395.719262  Gnorm:      0.002388  CPU:    4.926
  Cycle:     81 Energy:      -395.719325  Gnorm:      0.001788  CPU:    4.975
  Cycle:     82 Energy:      -395.719385  Gnorm:      0.001971  CPU:    5.024
  Cycle:     83 Energy:      -395.719448  Gnorm:      0.001846  CPU:    5.106
  Cycle:     84 Energy:      -395.719499  Gnorm:      0.001733  CPU:    5.155
  Cycle:     85 Energy:      -395.719541  Gnorm:      0.001748  CPU:    5.204
  Cycle:     86 Energy:      -395.719578  Gnorm:      0.001554  CPU:    5.253
  Cycle:     87 Energy:      -395.719614  Gnorm:      0.001799  CPU:    5.313
  Cycle:     88 Energy:      -395.719669  Gnorm:      0.002643  CPU:    5.362
  ** Hessian calculated **
  Cycle:     89 Energy:      -395.719719  Gnorm:      0.001710  CPU:    5.464
  Cycle:     90 Energy:      -395.719755  Gnorm:      0.001202  CPU:    5.524
  Cycle:     91 Energy:      -395.719792  Gnorm:      0.001430  CPU:    5.595
  Cycle:     92 Energy:      -395.719819  Gnorm:      0.001659  CPU:    5.655
  Cycle:     93 Energy:      -395.719869  Gnorm:      0.002063  CPU:    5.704
  Cycle:     94 Energy:      -395.719925  Gnorm:      0.001471  CPU:    5.753
  Cycle:     95 Energy:      -395.719979  Gnorm:      0.001958  CPU:    5.802
  Cycle:     96 Energy:      -395.720039  Gnorm:      0.002467  CPU:    5.851
  Cycle:     97 Energy:      -395.720103  Gnorm:      0.002140  CPU:    5.900
  Cycle:     98 Energy:      -395.720158  Gnorm:      0.002051  CPU:    5.949
  ** Hessian calculated **
  Cycle:     99 Energy:      -395.720198  Gnorm:      0.001928  CPU:    6.050
  Cycle:    100 Energy:      -395.720270  Gnorm:      0.002685  CPU:    6.110
  Cycle:    101 Energy:      -395.720342  Gnorm:      0.001553  CPU:    6.170
  Cycle:    102 Energy:      -395.720382  Gnorm:      0.001502  CPU:    6.219
  Cycle:    103 Energy:      -395.720437  Gnorm:      0.001967  CPU:    6.290
  Cycle:    104 Energy:      -395.720479  Gnorm:      0.001408  CPU:    6.361
  Cycle:    105 Energy:      -395.720523  Gnorm:      0.001783  CPU:    6.421
  Cycle:    106 Energy:      -395.720551  Gnorm:      0.001290  CPU:    6.470
  Cycle:    107 Energy:      -395.720691  Gnorm:      0.003287  CPU:    6.551
  Cycle:    108 Energy:      -395.720931  Gnorm:      0.003141  CPU:    6.624
  ** Hessian calculated **
  Cycle:    109 Energy:      -395.721022  Gnorm:      0.001854  CPU:    6.724
  Cycle:    110 Energy:      -395.721058  Gnorm:      0.001662  CPU:    6.773
  Cycle:    111 Energy:      -395.721097  Gnorm:      0.001663  CPU:    6.822
  Cycle:    112 Energy:      -395.721137  Gnorm:      0.001630  CPU:    6.871
  Cycle:    113 Energy:      -395.721179  Gnorm:      0.001704  CPU:    6.920
  Cycle:    114 Energy:      -395.721229  Gnorm:      0.001976  CPU:    6.969
  Cycle:    115 Energy:      -395.721287  Gnorm:      0.001808  CPU:    7.029
  Cycle:    116 Energy:      -395.721345  Gnorm:      0.002297  CPU:    7.078
  Cycle:    117 Energy:      -395.721405  Gnorm:      0.001504  CPU:    7.127
  Cycle:    118 Energy:      -395.721460  Gnorm:      0.003021  CPU:    7.176
  ** Hessian calculated **
  Cycle:    119 Energy:      -395.721507  Gnorm:      0.001577  CPU:    7.278
  Cycle:    120 Energy:      -395.721550  Gnorm:      0.002049  CPU:    7.327
  Cycle:    121 Energy:      -395.721615  Gnorm:      0.001980  CPU:    7.376
  Cycle:    122 Energy:      -395.721675  Gnorm:      0.001988  CPU:    7.447
  Cycle:    123 Energy:      -395.721731  Gnorm:      0.001745  CPU:    7.496
  Cycle:    124 Energy:      -395.721776  Gnorm:      0.001644  CPU:    7.546
  Cycle:    125 Energy:      -395.721813  Gnorm:      0.001723  CPU:    7.594
  Cycle:    126 Energy:      -395.721853  Gnorm:      0.001478  CPU:    7.643
  Cycle:    127 Energy:      -395.721890  Gnorm:      0.001872  CPU:    7.692
  Cycle:    128 Energy:      -395.721946  Gnorm:      0.002146  CPU:    7.741
  ** Hessian calculated **
  Cycle:    129 Energy:      -395.721995  Gnorm:      0.001835  CPU:    7.842
  Cycle:    130 Energy:      -395.722035  Gnorm:      0.001505  CPU:    7.891
  Cycle:    131 Energy:      -395.722072  Gnorm:      0.001726  CPU:    7.940
  Cycle:    132 Energy:      -395.722111  Gnorm:      0.001666  CPU:    7.989
  Cycle:    133 Energy:      -395.722153  Gnorm:      0.001625  CPU:    8.039
  Cycle:    134 Energy:      -395.722207  Gnorm:      0.002028  CPU:    8.088
  Cycle:    135 Energy:      -395.722259  Gnorm:      0.001844  CPU:    8.147
  Cycle:    136 Energy:      -395.722325  Gnorm:      0.002167  CPU:    8.196
  Cycle:    137 Energy:      -395.722371  Gnorm:      0.001584  CPU:    8.245
  Cycle:    138 Energy:      -395.722415  Gnorm:      0.002827  CPU:    8.294
  ** Hessian calculated **
  Cycle:    139 Energy:      -395.722458  Gnorm:      0.001562  CPU:    8.394
  Cycle:    140 Energy:      -395.722502  Gnorm:      0.002093  CPU:    8.456
  Cycle:    141 Energy:      -395.722570  Gnorm:      0.001897  CPU:    8.516
  Cycle:    142 Energy:      -395.722627  Gnorm:      0.002019  CPU:    8.565
  Cycle:    143 Energy:      -395.722682  Gnorm:      0.001640  CPU:    8.614
  Cycle:    144 Energy:      -395.722724  Gnorm:      0.001692  CPU:    8.663
  Cycle:    145 Energy:      -395.722762  Gnorm:      0.001709  CPU:    8.712
  Cycle:    146 Energy:      -395.722801  Gnorm:      0.001540  CPU:    8.761
  Cycle:    147 Energy:      -395.722839  Gnorm:      0.001847  CPU:    8.810
  Cycle:    148 Energy:      -395.722891  Gnorm:      0.002152  CPU:    8.859
  ** Hessian calculated **
  Cycle:    149 Energy:      -395.722938  Gnorm:      0.001800  CPU:    8.959
  Cycle:    150 Energy:      -395.722978  Gnorm:      0.001538  CPU:    9.008
  Cycle:    151 Energy:      -395.723014  Gnorm:      0.001706  CPU:    9.059
  Cycle:    152 Energy:      -395.723054  Gnorm:      0.001680  CPU:    9.108
  Cycle:    153 Energy:      -395.723095  Gnorm:      0.001623  CPU:    9.157
  Cycle:    154 Energy:      -395.723148  Gnorm:      0.002002  CPU:    9.206
  Cycle:    155 Energy:      -395.723206  Gnorm:      0.001854  CPU:    9.255
  Cycle:    156 Energy:      -395.723263  Gnorm:      0.001912  CPU:    9.314
  Cycle:    157 Energy:      -395.723311  Gnorm:      0.001576  CPU:    9.363
  Cycle:    158 Energy:      -395.723358  Gnorm:      0.002734  CPU:    9.424
  ** Hessian calculated **
  Cycle:    159 Energy:      -395.723398  Gnorm:      0.001474  CPU:    9.523
  Cycle:    160 Energy:      -395.723446  Gnorm:      0.002106  CPU:    9.583
  Cycle:    161 Energy:      -395.723508  Gnorm:      0.001953  CPU:    9.645
  Cycle:    162 Energy:      -395.723569  Gnorm:      0.002098  CPU:    9.694
  Cycle:    163 Energy:      -395.723622  Gnorm:      0.001632  CPU:    9.743
  Cycle:    164 Energy:      -395.723663  Gnorm:      0.001791  CPU:    9.792
  Cycle:    165 Energy:      -395.723703  Gnorm:      0.001713  CPU:    9.841
  Cycle:    166 Energy:      -395.723740  Gnorm:      0.001595  CPU:    9.890
  Cycle:    167 Energy:      -395.723777  Gnorm:      0.001774  CPU:    9.939
  Cycle:    168 Energy:      -395.723824  Gnorm:      0.002202  CPU:    9.988
  ** Hessian calculated **
  Cycle:    169 Energy:      -395.723868  Gnorm:      0.001693  CPU:   10.087
  Cycle:    170 Energy:      -395.723906  Gnorm:      0.001582  CPU:   10.136
  Cycle:    171 Energy:      -395.723941  Gnorm:      0.001684  CPU:   10.186
  Cycle:    172 Energy:      -395.723981  Gnorm:      0.001683  CPU:   10.236
  Cycle:    173 Energy:      -395.724023  Gnorm:      0.001605  CPU:   10.286
  Cycle:    174 Energy:      -395.724075  Gnorm:      0.002059  CPU:   10.335
  Cycle:    175 Energy:      -395.724135  Gnorm:      0.001811  CPU:   10.384
  Cycle:    176 Energy:      -395.724189  Gnorm:      0.002139  CPU:   10.444
  Cycle:    177 Energy:      -395.724245  Gnorm:      0.001412  CPU:   10.493
  Cycle:    178 Energy:      -395.724290  Gnorm:      0.002738  CPU:   10.542
  ** Hessian calculated **
  Cycle:    179 Energy:      -395.724332  Gnorm:      0.001634  CPU:   10.642
  Cycle:    180 Energy:      -395.724385  Gnorm:      0.002067  CPU:   10.702
  Cycle:    181 Energy:      -395.724442  Gnorm:      0.001868  CPU:   10.751
  Cycle:    182 Energy:      -395.724502  Gnorm:      0.002075  CPU:   10.800
  Cycle:    183 Energy:      -395.724554  Gnorm:      0.001585  CPU:   10.851
  Cycle:    184 Energy:      -395.724597  Gnorm:      0.001730  CPU:   10.900
  Cycle:    185 Energy:      -395.724637  Gnorm:      0.001665  CPU:   10.949
  Cycle:    186 Energy:      -395.724673  Gnorm:      0.001608  CPU:   10.998
  Cycle:    187 Energy:      -395.724712  Gnorm:      0.001712  CPU:   11.047
  Cycle:    188 Energy:      -395.724755  Gnorm:      0.002156  CPU:   11.096
  ** Hessian calculated **
  Cycle:    189 Energy:      -395.724795  Gnorm:      0.001665  CPU:   11.195
  Cycle:    190 Energy:      -395.724834  Gnorm:      0.001584  CPU:   11.244
  Cycle:    191 Energy:      -395.724869  Gnorm:      0.001685  CPU:   11.293
  Cycle:    192 Energy:      -395.724909  Gnorm:      0.001687  CPU:   11.342
  Cycle:    193 Energy:      -395.724952  Gnorm:      0.001604  CPU:   11.391
  Cycle:    194 Energy:      -395.725004  Gnorm:      0.002058  CPU:   11.440
  Cycle:    195 Energy:      -395.725064  Gnorm:      0.001869  CPU:   11.489
  Cycle:    196 Energy:      -395.725122  Gnorm:      0.002087  CPU:   11.538
  Cycle:    197 Energy:      -395.725176  Gnorm:      0.001657  CPU:   11.587
  Cycle:    198 Energy:      -395.725219  Gnorm:      0.002749  CPU:   11.636
  ** Hessian calculated **
  Cycle:    199 Energy:      -395.725260  Gnorm:      0.001641  CPU:   11.736
  Cycle:    200 Energy:      -395.725313  Gnorm:      0.002058  CPU:   11.795
  Cycle:    201 Energy:      -395.725371  Gnorm:      0.001866  CPU:   11.844
  Cycle:    202 Energy:      -395.725430  Gnorm:      0.002079  CPU:   11.893
  Cycle:    203 Energy:      -395.725482  Gnorm:      0.001625  CPU:   11.942
  Cycle:    204 Energy:      -395.725526  Gnorm:      0.001678  CPU:   11.991
  Cycle:    205 Energy:      -395.725565  Gnorm:      0.001688  CPU:   12.040
  Cycle:    206 Energy:      -395.725602  Gnorm:      0.001613  CPU:   12.089
  Cycle:    207 Energy:      -395.725640  Gnorm:      0.001710  CPU:   12.138
  Cycle:    208 Energy:      -395.725683  Gnorm:      0.002151  CPU:   12.187
  ** Hessian calculated **
  Cycle:    209 Energy:      -395.725724  Gnorm:      0.001681  CPU:   12.286
  Cycle:    210 Energy:      -395.725763  Gnorm:      0.001583  CPU:   12.335
  Cycle:    211 Energy:      -395.725798  Gnorm:      0.001689  CPU:   12.384
  Cycle:    212 Energy:      -395.725838  Gnorm:      0.001680  CPU:   12.433
  Cycle:    213 Energy:      -395.725881  Gnorm:      0.001617  CPU:   12.482
  Cycle:    214 Energy:      -395.725933  Gnorm:      0.002064  CPU:   12.531
  Cycle:    215 Energy:      -395.725993  Gnorm:      0.001851  CPU:   12.582
  Cycle:    216 Energy:      -395.726052  Gnorm:      0.002103  CPU:   12.631
  Cycle:    217 Energy:      -395.726105  Gnorm:      0.001657  CPU:   12.680
  Cycle:    218 Energy:      -395.726149  Gnorm:      0.002780  CPU:   12.729
  ** Hessian calculated **
  Cycle:    219 Energy:      -395.726191  Gnorm:      0.001639  CPU:   12.829
  Cycle:    220 Energy:      -395.726244  Gnorm:      0.002062  CPU:   12.889
  Cycle:    221 Energy:      -395.726302  Gnorm:      0.001879  CPU:   12.937
  Cycle:    222 Energy:      -395.726361  Gnorm:      0.002074  CPU:   12.986
  Cycle:    223 Energy:      -395.726413  Gnorm:      0.001594  CPU:   13.035
  Cycle:    224 Energy:      -395.726457  Gnorm:      0.001706  CPU:   13.084
  Cycle:    225 Energy:      -395.726497  Gnorm:      0.001694  CPU:   13.133
  Cycle:    226 Energy:      -395.726533  Gnorm:      0.001606  CPU:   13.182
  Cycle:    227 Energy:      -395.726572  Gnorm:      0.001730  CPU:   13.231
  Cycle:    228 Energy:      -395.726615  Gnorm:      0.002146  CPU:   13.280
  ** Hessian calculated **
  Cycle:    229 Energy:      -395.726657  Gnorm:      0.001691  CPU:   13.379
  Cycle:    230 Energy:      -395.726695  Gnorm:      0.001587  CPU:   13.428
  Cycle:    231 Energy:      -395.726731  Gnorm:      0.001697  CPU:   13.478
  Cycle:    232 Energy:      -395.726770  Gnorm:      0.001680  CPU:   13.527
  Cycle:    233 Energy:      -395.726814  Gnorm:      0.001616  CPU:   13.576
  Cycle:    234 Energy:      -395.726866  Gnorm:      0.002064  CPU:   13.625
  Cycle:    235 Energy:      -395.726926  Gnorm:      0.001871  CPU:   13.674
  Cycle:    236 Energy:      -395.726985  Gnorm:      0.002093  CPU:   13.723
  Cycle:    237 Energy:      -395.727039  Gnorm:      0.001651  CPU:   13.772
  Cycle:    238 Energy:      -395.727083  Gnorm:      0.002839  CPU:   13.821
  ** Hessian calculated **
  Cycle:    239 Energy:      -395.727126  Gnorm:      0.001636  CPU:   13.920
  Cycle:    240 Energy:      -395.727179  Gnorm:      0.002062  CPU:   13.980
  Cycle:    241 Energy:      -395.727237  Gnorm:      0.001876  CPU:   14.029
  Cycle:    242 Energy:      -395.727297  Gnorm:      0.002078  CPU:   14.078
  Cycle:    243 Energy:      -395.727349  Gnorm:      0.001621  CPU:   14.127
  Cycle:    244 Energy:      -395.727393  Gnorm:      0.001682  CPU:   14.176
  Cycle:    245 Energy:      -395.727432  Gnorm:      0.001705  CPU:   14.225
  Cycle:    246 Energy:      -395.727469  Gnorm:      0.001617  CPU:   14.273
  Cycle:    247 Energy:      -395.727508  Gnorm:      0.001740  CPU:   14.322
  Cycle:    248 Energy:      -395.727552  Gnorm:      0.002141  CPU:   14.371
  ** Hessian calculated **
  Cycle:    249 Energy:      -395.727594  Gnorm:      0.001707  CPU:   14.471
  Cycle:    250 Energy:      -395.727633  Gnorm:      0.001589  CPU:   14.520
  Cycle:    251 Energy:      -395.727669  Gnorm:      0.001707  CPU:   14.569
  Cycle:    252 Energy:      -395.727708  Gnorm:      0.001677  CPU:   14.618
  Cycle:    253 Energy:      -395.727751  Gnorm:      0.001627  CPU:   14.667
  Cycle:    254 Energy:      -395.727804  Gnorm:      0.002070  CPU:   14.716
  Cycle:    255 Energy:      -395.727864  Gnorm:      0.001862  CPU:   14.765
  Cycle:    256 Energy:      -395.727923  Gnorm:      0.002104  CPU:   14.814
  Cycle:    257 Energy:      -395.727977  Gnorm:      0.001648  CPU:   14.863
  Cycle:    258 Energy:      -395.728023  Gnorm:      0.002896  CPU:   14.912
  ** Hessian calculated **
  Cycle:    259 Energy:      -395.728067  Gnorm:      0.001633  CPU:   15.011
  Cycle:    260 Energy:      -395.728121  Gnorm:      0.002067  CPU:   15.072
  Cycle:    261 Energy:      -395.728179  Gnorm:      0.001887  CPU:   15.121
  Cycle:    262 Energy:      -395.728239  Gnorm:      0.002077  CPU:   15.170
  Cycle:    263 Energy:      -395.728292  Gnorm:      0.001607  CPU:   15.219
  Cycle:    264 Energy:      -395.728335  Gnorm:      0.001702  CPU:   15.268
  Cycle:    265 Energy:      -395.728375  Gnorm:      0.001712  CPU:   15.317
  Cycle:    266 Energy:      -395.728412  Gnorm:      0.001616  CPU:   15.366
  Cycle:    267 Energy:      -395.728451  Gnorm:      0.001758  CPU:   15.415
  Cycle:    268 Energy:      -395.728495  Gnorm:      0.002137  CPU:   15.464
  ** Hessian calculated **
  Cycle:    269 Energy:      -395.728538  Gnorm:      0.001720  CPU:   15.563
  Cycle:    270 Energy:      -395.728577  Gnorm:      0.001594  CPU:   15.612
  Cycle:    271 Energy:      -395.728613  Gnorm:      0.001718  CPU:   15.661
  Cycle:    272 Energy:      -395.728653  Gnorm:      0.001678  CPU:   15.710
  Cycle:    273 Energy:      -395.728696  Gnorm:      0.001630  CPU:   15.759
  Cycle:    274 Energy:      -395.728749  Gnorm:      0.002072  CPU:   15.808
  Cycle:    275 Energy:      -395.728810  Gnorm:      0.001881  CPU:   15.857
  Cycle:    276 Energy:      -395.728869  Gnorm:      0.002098  CPU:   15.906
  Cycle:    277 Energy:      -395.728929  Gnorm:      0.001645  CPU:   15.966
  Cycle:    278 Energy:      -395.728963  Gnorm:      0.001978  CPU:   16.015
  ** Hessian calculated **
  Cycle:    279 Energy:      -395.728997  Gnorm:      0.001883  CPU:   16.114
  Cycle:    280 Energy:      -395.729056  Gnorm:      0.001945  CPU:   16.174
  Cycle:    281 Energy:      -395.729112  Gnorm:      0.001925  CPU:   16.223
  Cycle:    282 Energy:      -395.729173  Gnorm:      0.002013  CPU:   16.272
  Cycle:    283 Energy:      -395.729222  Gnorm:      0.001595  CPU:   16.321
  Cycle:    284 Energy:      -395.729264  Gnorm:      0.001661  CPU:   16.370
  Cycle:    285 Energy:      -395.729304  Gnorm:      0.001692  CPU:   16.419
  Cycle:    286 Energy:      -395.729340  Gnorm:      0.001703  CPU:   16.468
  Cycle:    287 Energy:      -395.729379  Gnorm:      0.001713  CPU:   16.528
  Cycle:    288 Energy:      -395.729441  Gnorm:      0.003171  CPU:   16.577
  ** Hessian calculated **
  Cycle:    289 Energy:      -395.729501  Gnorm:      0.001683  CPU:   16.676
  Cycle:    290 Energy:      -395.729545  Gnorm:      0.001676  CPU:   16.725
  Cycle:    291 Energy:      -395.729582  Gnorm:      0.001285  CPU:   16.774
  Cycle:    292 Energy:      -395.729625  Gnorm:      0.001640  CPU:   16.823
  Cycle:    293 Energy:      -395.729663  Gnorm:      0.001600  CPU:   16.872
  Cycle:    294 Energy:      -395.729714  Gnorm:      0.002156  CPU:   16.921
  Cycle:    295 Energy:      -395.729777  Gnorm:      0.001842  CPU:   16.970
  Cycle:    296 Energy:      -395.729831  Gnorm:      0.002099  CPU:   17.019
  Cycle:    297 Energy:      -395.729899  Gnorm:      0.001970  CPU:   17.079
  Cycle:    298 Energy:      -395.729935  Gnorm:      0.001982  CPU:   17.128
  ** Hessian calculated **
  Cycle:    299 Energy:      -395.729968  Gnorm:      0.001877  CPU:   17.227
  Cycle:    300 Energy:      -395.730024  Gnorm:      0.001860  CPU:   17.286
  Cycle:    301 Energy:      -395.730081  Gnorm:      0.001892  CPU:   17.335
  Cycle:    302 Energy:      -395.730145  Gnorm:      0.002055  CPU:   17.384
  Cycle:    303 Energy:      -395.730192  Gnorm:      0.001616  CPU:   17.433
  Cycle:    304 Energy:      -395.730234  Gnorm:      0.001629  CPU:   17.482
  Cycle:    305 Energy:      -395.730269  Gnorm:      0.001721  CPU:   17.542
  Cycle:    306 Energy:      -395.730305  Gnorm:      0.001705  CPU:   17.591
  Cycle:    307 Energy:      -395.730349  Gnorm:      0.001764  CPU:   17.640
  Cycle:    308 Energy:      -395.730414  Gnorm:      0.003254  CPU:   17.689
  ** Hessian calculated **
  Cycle:    309 Energy:      -395.730478  Gnorm:      0.001750  CPU:   17.788
  Cycle:    310 Energy:      -395.730521  Gnorm:      0.001691  CPU:   17.837
  Cycle:    311 Energy:      -395.730558  Gnorm:      0.001729  CPU:   17.886
  Cycle:    312 Energy:      -395.730597  Gnorm:      0.001728  CPU:   17.936
  Cycle:    313 Energy:      -395.730653  Gnorm:      0.001674  CPU:   17.996
  Cycle:    314 Energy:      -395.730697  Gnorm:      0.001907  CPU:   18.045
  Cycle:    315 Energy:      -395.730757  Gnorm:      0.001837  CPU:   18.094
  Cycle:    316 Energy:      -395.730813  Gnorm:      0.001979  CPU:   18.143
  Cycle:    317 Energy:      -395.730875  Gnorm:      0.001890  CPU:   18.203
  Cycle:    318 Energy:      -395.730911  Gnorm:      0.001954  CPU:   18.251
  ** Hessian calculated **
  Cycle:    319 Energy:      -395.730945  Gnorm:      0.001866  CPU:   18.351
  Cycle:    320 Energy:      -395.731001  Gnorm:      0.001827  CPU:   18.411
  Cycle:    321 Energy:      -395.731041  Gnorm:      0.002877  CPU:   18.460
  Cycle:    322 Energy:      -395.731106  Gnorm:      0.001906  CPU:   18.509
  Cycle:    323 Energy:      -395.731144  Gnorm:      0.001798  CPU:   18.558
  Cycle:    324 Energy:      -395.731199  Gnorm:      0.001814  CPU:   18.607
  Cycle:    325 Energy:      -395.731241  Gnorm:      0.001660  CPU:   18.656
  Cycle:    326 Energy:      -395.731275  Gnorm:      0.001765  CPU:   18.705
  Cycle:    327 Energy:      -395.731321  Gnorm:      0.001854  CPU:   18.754
  Cycle:    328 Energy:      -395.731385  Gnorm:      0.003026  CPU:   18.803
  ** Hessian calculated **
  Cycle:    329 Energy:      -395.731442  Gnorm:      0.001757  CPU:   18.902
  Cycle:    330 Energy:      -395.731490  Gnorm:      0.001821  CPU:   18.951
  Cycle:    331 Energy:      -395.731527  Gnorm:      0.001597  CPU:   19.000
  Cycle:    332 Energy:      -395.731560  Gnorm:      0.001638  CPU:   19.049
  Cycle:    333 Energy:      -395.731614  Gnorm:      0.001637  CPU:   19.109
  Cycle:    334 Energy:      -395.731652  Gnorm:      0.001869  CPU:   19.158
  Cycle:    335 Energy:      -395.731739  Gnorm:      0.001932  CPU:   19.218
  Cycle:    336 Energy:      -395.731808  Gnorm:      0.001680  CPU:   19.267
  Cycle:    337 Energy:      -395.731855  Gnorm:      0.001761  CPU:   19.316
  Cycle:    338 Energy:      -395.731898  Gnorm:      0.002480  CPU:   19.365
  ** Hessian calculated **
  Cycle:    339 Energy:      -395.731940  Gnorm:      0.001832  CPU:   19.464
  Cycle:    340 Energy:      -395.731995  Gnorm:      0.001947  CPU:   19.513
  Cycle:    341 Energy:      -395.732050  Gnorm:      0.002076  CPU:   19.562
  Cycle:    342 Energy:      -395.732130  Gnorm:      0.001812  CPU:   19.611
  Cycle:    343 Energy:      -395.732171  Gnorm:      0.001746  CPU:   19.660
  Cycle:    344 Energy:      -395.732225  Gnorm:      0.001572  CPU:   19.709
  Cycle:    345 Energy:      -395.732258  Gnorm:      0.001647  CPU:   19.758
  Cycle:    346 Energy:      -395.732297  Gnorm:      0.001801  CPU:   19.807
  Cycle:    347 Energy:      -395.732337  Gnorm:      0.001679  CPU:   19.856
  Cycle:    348 Energy:      -395.732404  Gnorm:      0.003386  CPU:   19.915
  ** Hessian calculated **
  Cycle:    349 Energy:      -395.732469  Gnorm:      0.001657  CPU:   20.015
  Cycle:    350 Energy:      -395.732509  Gnorm:      0.001765  CPU:   20.064
  Cycle:    351 Energy:      -395.732547  Gnorm:      0.001683  CPU:   20.113
  Cycle:    352 Energy:      -395.732581  Gnorm:      0.001571  CPU:   20.162
  Cycle:    353 Energy:      -395.732635  Gnorm:      0.001760  CPU:   20.222
  Cycle:    354 Energy:      -395.732676  Gnorm:      0.001820  CPU:   20.271
  Cycle:    355 Energy:      -395.732755  Gnorm:      0.002507  CPU:   20.331
  Cycle:    356 Energy:      -395.732825  Gnorm:      0.001914  CPU:   20.380
  Cycle:    357 Energy:      -395.732874  Gnorm:      0.002738  CPU:   20.430
  Cycle:    358 Energy:      -395.732927  Gnorm:      0.002294  CPU:   20.479
  ** Hessian calculated **
  Cycle:    359 Energy:      -395.732970  Gnorm:      0.001903  CPU:   20.578
  Cycle:    360 Energy:      -395.733013  Gnorm:      0.001725  CPU:   20.638
  Cycle:    361 Energy:      -395.733079  Gnorm:      0.002255  CPU:   20.698
  Cycle:    362 Energy:      -395.733140  Gnorm:      0.001386  CPU:   20.757
  Cycle:    363 Energy:      -395.733191  Gnorm:      0.001803  CPU:   20.806
  Cycle:    364 Energy:      -395.733234  Gnorm:      0.001678  CPU:   20.856
  Cycle:    365 Energy:      -395.733276  Gnorm:      0.001877  CPU:   20.904
  Cycle:    366 Energy:      -395.733317  Gnorm:      0.001806  CPU:   20.953
  Cycle:    367 Energy:      -395.733356  Gnorm:      0.001840  CPU:   21.002
  Cycle:    368 Energy:      -395.733447  Gnorm:      0.003798  CPU:   21.062
  ** Hessian calculated **
  Cycle:    369 Energy:      -395.733520  Gnorm:      0.001638  CPU:   21.161
  Cycle:    370 Energy:      -395.733568  Gnorm:      0.001994  CPU:   21.210
  Cycle:    371 Energy:      -395.733608  Gnorm:      0.001607  CPU:   21.259
  Cycle:    372 Energy:      -395.733647  Gnorm:      0.001679  CPU:   21.308
  Cycle:    373 Energy:      -395.733700  Gnorm:      0.001666  CPU:   21.357
  Cycle:    374 Energy:      -395.733741  Gnorm:      0.001838  CPU:   21.406
  Cycle:    375 Energy:      -395.733810  Gnorm:      0.001603  CPU:   21.466
  Cycle:    376 Energy:      -395.733882  Gnorm:      0.001826  CPU:   21.515
  Cycle:    377 Energy:      -395.733925  Gnorm:      0.001901  CPU:   21.564
  Cycle:    378 Energy:      -395.733969  Gnorm:      0.002193  CPU:   21.613
  ** Hessian calculated **
  Cycle:    379 Energy:      -395.734008  Gnorm:      0.001791  CPU:   21.713
  Cycle:    380 Energy:      -395.734064  Gnorm:      0.002285  CPU:   21.773
  Cycle:    381 Energy:      -395.734132  Gnorm:      0.001916  CPU:   21.822
  Cycle:    382 Energy:      -395.734187  Gnorm:      0.001514  CPU:   21.871
  Cycle:    383 Energy:      -395.734236  Gnorm:      0.001582  CPU:   21.920
  Cycle:    384 Energy:      -395.734285  Gnorm:      0.001762  CPU:   21.969
  Cycle:    385 Energy:      -395.734325  Gnorm:      0.001846  CPU:   22.018
  Cycle:    386 Energy:      -395.734366  Gnorm:      0.001649  CPU:   22.067
  Cycle:    387 Energy:      -395.734410  Gnorm:      0.002071  CPU:   22.116
  Cycle:    388 Energy:      -395.734484  Gnorm:      0.003475  CPU:   22.175
  ** Hessian calculated **
  Cycle:    389 Energy:      -395.734553  Gnorm:      0.001797  CPU:   22.275
  Cycle:    390 Energy:      -395.734597  Gnorm:      0.001748  CPU:   22.324
  Cycle:    391 Energy:      -395.734639  Gnorm:      0.001640  CPU:   22.373
  Cycle:    392 Energy:      -395.734669  Gnorm:      0.001584  CPU:   22.422
  Cycle:    393 Energy:      -395.734720  Gnorm:      0.001797  CPU:   22.481
  Cycle:    394 Energy:      -395.734767  Gnorm:      0.001769  CPU:   22.530
  Cycle:    395 Energy:      -395.734844  Gnorm:      0.002336  CPU:   22.590
  Cycle:    396 Energy:      -395.734917  Gnorm:      0.002074  CPU:   22.640
  Cycle:    397 Energy:      -395.734976  Gnorm:      0.002044  CPU:   22.689
  Cycle:    398 Energy:      -395.735024  Gnorm:      0.002017  CPU:   22.738
  ** Hessian calculated **
  Cycle:    399 Energy:      -395.735069  Gnorm:      0.002053  CPU:   22.837
  Cycle:    400 Energy:      -395.735126  Gnorm:      0.002031  CPU:   22.886
  Cycle:    401 Energy:      -395.735195  Gnorm:      0.002367  CPU:   22.935
  Cycle:    402 Energy:      -395.735274  Gnorm:      0.001943  CPU:   22.984
  Cycle:    403 Energy:      -395.735310  Gnorm:      0.001412  CPU:   23.033
  Cycle:    404 Energy:      -395.735365  Gnorm:      0.001722  CPU:   23.082
  Cycle:    405 Energy:      -395.735396  Gnorm:      0.001527  CPU:   23.131
  Cycle:    406 Energy:      -395.735440  Gnorm:      0.001800  CPU:   23.180
  Cycle:    407 Energy:      -395.735484  Gnorm:      0.001843  CPU:   23.229
  Cycle:    408 Energy:      -395.735548  Gnorm:      0.003188  CPU:   23.278
  ** Hessian calculated **
  Cycle:    409 Energy:      -395.735610  Gnorm:      0.001837  CPU:   23.377
  Cycle:    410 Energy:      -395.735654  Gnorm:      0.001778  CPU:   23.426
  Cycle:    411 Energy:      -395.735695  Gnorm:      0.001564  CPU:   23.475
  Cycle:    412 Energy:      -395.735725  Gnorm:      0.001650  CPU:   23.524
  Cycle:    413 Energy:      -395.735777  Gnorm:      0.001764  CPU:   23.584
  Cycle:    414 Energy:      -395.735824  Gnorm:      0.001863  CPU:   23.655
  Cycle:    415 Energy:      -395.735900  Gnorm:      0.002464  CPU:   23.714
  Cycle:    416 Energy:      -395.735983  Gnorm:      0.002039  CPU:   23.763
  Cycle:    417 Energy:      -395.736045  Gnorm:      0.001852  CPU:   23.812
  Cycle:    418 Energy:      -395.736096  Gnorm:      0.002029  CPU:   23.861
  ** Hessian calculated **
  Cycle:    419 Energy:      -395.736142  Gnorm:      0.002100  CPU:   23.960
  Cycle:    420 Energy:      -395.736196  Gnorm:      0.002010  CPU:   24.020
  Cycle:    421 Energy:      -395.736276  Gnorm:      0.002503  CPU:   24.069
  Cycle:    422 Energy:      -395.736353  Gnorm:      0.001927  CPU:   24.118
  Cycle:    423 Energy:      -395.736390  Gnorm:      0.001386  CPU:   24.167
  Cycle:    424 Energy:      -395.736444  Gnorm:      0.001768  CPU:   24.216
  Cycle:    425 Energy:      -395.736475  Gnorm:      0.001455  CPU:   24.265
  Cycle:    426 Energy:      -395.736516  Gnorm:      0.001843  CPU:   24.314
  Cycle:    427 Energy:      -395.736561  Gnorm:      0.001865  CPU:   24.363
  Cycle:    428 Energy:      -395.736621  Gnorm:      0.002961  CPU:   24.412
  ** Hessian calculated **
  Cycle:    429 Energy:      -395.736680  Gnorm:      0.001846  CPU:   24.511
  Cycle:    430 Energy:      -395.736725  Gnorm:      0.001819  CPU:   24.560
  Cycle:    431 Energy:      -395.736762  Gnorm:      0.001439  CPU:   24.609
  Cycle:    432 Energy:      -395.736793  Gnorm:      0.001754  CPU:   24.658
  Cycle:    433 Energy:      -395.736845  Gnorm:      0.001673  CPU:   24.718
  Cycle:    434 Energy:      -395.736892  Gnorm:      0.001627  CPU:   24.767
  Cycle:    435 Energy:      -395.736969  Gnorm:      0.002625  CPU:   24.827
  Cycle:    436 Energy:      -395.737066  Gnorm:      0.002032  CPU:   24.887
  Cycle:    437 Energy:      -395.737130  Gnorm:      0.002196  CPU:   24.936
  Cycle:    438 Energy:      -395.737180  Gnorm:      0.002078  CPU:   24.985
  ** Hessian calculated **
  Cycle:    439 Energy:      -395.737227  Gnorm:      0.002123  CPU:   25.084
  Cycle:    440 Energy:      -395.737291  Gnorm:      0.001934  CPU:   25.133
  Cycle:    441 Energy:      -395.737380  Gnorm:      0.002299  CPU:   25.193
  Cycle:    442 Energy:      -395.737449  Gnorm:      0.001931  CPU:   25.242
  Cycle:    443 Energy:      -395.737489  Gnorm:      0.001410  CPU:   25.291
  Cycle:    444 Energy:      -395.737540  Gnorm:      0.001619  CPU:   25.340
  Cycle:    445 Energy:      -395.737572  Gnorm:      0.001617  CPU:   25.389
  Cycle:    446 Energy:      -395.737618  Gnorm:      0.001763  CPU:   25.450
  Cycle:    447 Energy:      -395.737662  Gnorm:      0.001861  CPU:   25.499
  Cycle:    448 Energy:      -395.737751  Gnorm:      0.003906  CPU:   25.559
  ** Hessian calculated **
  Cycle:    449 Energy:      -395.737826  Gnorm:      0.001750  CPU:   25.658
  Cycle:    450 Energy:      -395.737871  Gnorm:      0.001783  CPU:   25.707
  Cycle:    451 Energy:      -395.737911  Gnorm:      0.001436  CPU:   25.756
  Cycle:    452 Energy:      -395.737951  Gnorm:      0.001714  CPU:   25.816
  Cycle:    453 Energy:      -395.738000  Gnorm:      0.001472  CPU:   25.865
  Cycle:    454 Energy:      -395.738047  Gnorm:      0.001973  CPU:   25.925
  Cycle:    455 Energy:      -395.738107  Gnorm:      0.002206  CPU:   25.974
  Cycle:    456 Energy:      -395.738223  Gnorm:      0.002217  CPU:   26.034
  Cycle:    457 Energy:      -395.738296  Gnorm:      0.001886  CPU:   26.083
  Cycle:    458 Energy:      -395.738345  Gnorm:      0.002755  CPU:   26.132
  ** Hessian calculated **
  Cycle:    459 Energy:      -395.738390  Gnorm:      0.001815  CPU:   26.231
  Cycle:    460 Energy:      -395.738468  Gnorm:      0.002325  CPU:   26.291
  Cycle:    461 Energy:      -395.738545  Gnorm:      0.002342  CPU:   26.340
  Cycle:    462 Energy:      -395.738615  Gnorm:      0.002119  CPU:   26.389
  Cycle:    463 Energy:      -395.738675  Gnorm:      0.001680  CPU:   26.438
  Cycle:    464 Energy:      -395.738712  Gnorm:      0.001246  CPU:   26.488
  Cycle:    465 Energy:      -395.738760  Gnorm:      0.001377  CPU:   26.548
  Cycle:    466 Energy:      -395.738778  Gnorm:      0.001308  CPU:   26.597
  Cycle:    467 Energy:      -395.738820  Gnorm:      0.001862  CPU:   26.646
  Cycle:    468 Energy:      -395.738875  Gnorm:      0.002348  CPU:   26.695
  ** Hessian calculated **
  Cycle:    469 Energy:      -395.738923  Gnorm:      0.001950  CPU:   26.794
  Cycle:    470 Energy:      -395.738990  Gnorm:      0.001816  CPU:   26.854
  Cycle:    471 Energy:      -395.739024  Gnorm:      0.001514  CPU:   26.903
  Cycle:    472 Energy:      -395.739074  Gnorm:      0.001936  CPU:   26.963
  Cycle:    473 Energy:      -395.739120  Gnorm:      0.001211  CPU:   27.012
  Cycle:    474 Energy:      -395.739180  Gnorm:      0.002181  CPU:   27.072
  Cycle:    475 Energy:      -395.739247  Gnorm:      0.002481  CPU:   27.121
  Cycle:    476 Energy:      -395.739325  Gnorm:      0.002225  CPU:   27.170
  Cycle:    477 Energy:      -395.739372  Gnorm:      0.001833  CPU:   27.219
  Cycle:    478 Energy:      -395.739422  Gnorm:      0.002661  CPU:   27.267
  ** Hessian calculated **
  Cycle:    479 Energy:      -395.739469  Gnorm:      0.001735  CPU:   27.367
  Cycle:    480 Energy:      -395.739516  Gnorm:      0.002111  CPU:   27.416
  Cycle:    481 Energy:      -395.739580  Gnorm:      0.002028  CPU:   27.465
  Cycle:    482 Energy:      -395.739648  Gnorm:      0.002252  CPU:   27.514
  Cycle:    483 Energy:      -395.739711  Gnorm:      0.001600  CPU:   27.562
  Cycle:    484 Energy:      -395.739750  Gnorm:      0.001269  CPU:   27.611
  Cycle:    485 Energy:      -395.739793  Gnorm:      0.001776  CPU:   27.671
  Cycle:    486 Energy:      -395.739828  Gnorm:      0.001651  CPU:   27.720
  Cycle:    487 Energy:      -395.739886  Gnorm:      0.001712  CPU:   27.780
  Cycle:    488 Energy:      -395.739946  Gnorm:      0.002857  CPU:   27.829
  ** Hessian calculated **
  Cycle:    489 Energy:      -395.740000  Gnorm:      0.001808  CPU:   27.928
  Cycle:    490 Energy:      -395.740075  Gnorm:      0.001471  CPU:   27.988
  Cycle:    491 Energy:      -395.740112  Gnorm:      0.001848  CPU:   28.037
  Cycle:    492 Energy:      -395.740164  Gnorm:      0.001678  CPU:   28.119
  Cycle:    493 Energy:      -395.740209  Gnorm:      0.001768  CPU:   28.168
  Cycle:    494 Energy:      -395.740271  Gnorm:      0.002232  CPU:   28.217
  Cycle:    495 Energy:      -395.740338  Gnorm:      0.002035  CPU:   28.266
  Cycle:    496 Energy:      -395.740411  Gnorm:      0.002280  CPU:   28.315
  Cycle:    497 Energy:      -395.740454  Gnorm:      0.001687  CPU:   28.364
  Cycle:    498 Energy:      -395.740516  Gnorm:      0.003140  CPU:   28.424
  ** Hessian calculated **
  Cycle:    499 Energy:      -395.740576  Gnorm:      0.001673  CPU:   28.523
  Cycle:    500 Energy:      -395.740619  Gnorm:      0.002263  CPU:   28.572
  Cycle:    501 Energy:      -395.740693  Gnorm:      0.002051  CPU:   28.621
  Cycle:    502 Energy:      -395.740759  Gnorm:      0.002277  CPU:   28.670
  Cycle:    503 Energy:      -395.740831  Gnorm:      0.001823  CPU:   28.719
  Cycle:    504 Energy:      -395.740867  Gnorm:      0.001146  CPU:   28.768
  Cycle:    505 Energy:      -395.740868  Gnorm:      0.001134  CPU:   28.850
  Cycle:    506 Energy:      -395.740869  Gnorm:      0.001134  CPU:   28.899
  Cycle:    507 Energy:      -395.740869  Gnorm:      0.001134  CPU:   28.948
  Cycle:    508 Energy:      -395.740869  Gnorm:      0.001134  CPU:   28.997
  ** Hessian calculated **
  Cycle:    509 Energy:      -395.740889  Gnorm:      0.001521  CPU:   29.107
  Cycle:    510 Energy:      -395.740915  Gnorm:      0.001171  CPU:   29.156
  Cycle:    511 Energy:      -395.740951  Gnorm:      0.001666  CPU:   29.216
  Cycle:    512 Energy:      -395.740979  Gnorm:      0.001306  CPU:   29.265
  Cycle:    513 Energy:      -395.741098  Gnorm:      0.003423  CPU:   29.336
  Cycle:    514 Energy:      -395.741365  Gnorm:      0.002925  CPU:   29.407
  Cycle:    515 Energy:      -395.741670  Gnorm:      0.003321  CPU:   29.478
  Cycle:    516 Energy:      -395.741974  Gnorm:      0.003514  CPU:   29.538
  Cycle:    517 Energy:      -395.742313  Gnorm:      0.004503  CPU:   29.598
  Cycle:    518 Energy:      -395.742712  Gnorm:      0.007784  CPU:   29.658
  ** Hessian calculated **
  Cycle:    519 Energy:      -395.743058  Gnorm:      0.005296  CPU:   29.757
  Cycle:    520 Energy:      -395.743800  Gnorm:      0.005849  CPU:   29.817
  Cycle:    521 Energy:      -395.744142  Gnorm:      0.005423  CPU:   29.866
  Cycle:    522 Energy:      -395.744800  Gnorm:      0.005347  CPU:   29.926
  Cycle:    523 Energy:      -395.744996  Gnorm:      0.001910  CPU:   29.975
  Cycle:    524 Energy:      -395.745055  Gnorm:      0.002101  CPU:   30.024
  Cycle:    525 Energy:      -395.745118  Gnorm:      0.001534  CPU:   30.084
  Cycle:    526 Energy:      -395.745141  Gnorm:      0.001132  CPU:   30.133
  Cycle:    527 Energy:      -395.745151  Gnorm:      0.001456  CPU:   30.182
  Cycle:    528 Energy:      -395.745209  Gnorm:      0.002405  CPU:   30.242
  ** Hessian calculated **
  Cycle:    529 Energy:      -395.745249  Gnorm:      0.001242  CPU:   30.341
  Cycle:    530 Energy:      -395.745265  Gnorm:      0.001187  CPU:   30.390
  Cycle:    531 Energy:      -395.745291  Gnorm:      0.001477  CPU:   30.450
  Cycle:    532 Energy:      -395.745332  Gnorm:      0.001331  CPU:   30.510
  Cycle:    533 Energy:      -395.745396  Gnorm:      0.001858  CPU:   30.570
  Cycle:    534 Energy:      -395.745514  Gnorm:      0.003619  CPU:   30.630
  Cycle:    535 Energy:      -395.745888  Gnorm:      0.005807  CPU:   30.700
  Cycle:    536 Energy:      -395.746361  Gnorm:      0.005566  CPU:   30.760
  Cycle:    537 Energy:      -395.747153  Gnorm:      0.005923  CPU:   30.831
  Cycle:    538 Energy:      -395.747539  Gnorm:      0.006800  CPU:   30.880
  ** Hessian calculated **
  Cycle:    539 Energy:      -395.747819  Gnorm:      0.005154  CPU:   30.979
  Cycle:    540 Energy:      -395.748755  Gnorm:      0.009169  CPU:   31.050
  Cycle:    541 Energy:      -395.749471  Gnorm:      0.004205  CPU:   31.100
  Cycle:    542 Energy:      -395.749650  Gnorm:      0.002885  CPU:   31.148
  Cycle:    543 Energy:      -395.749847  Gnorm:      0.003298  CPU:   31.208
  Cycle:    544 Energy:      -395.749934  Gnorm:      0.001900  CPU:   31.257
  Cycle:    545 Energy:      -395.749954  Gnorm:      0.001099  CPU:   31.317
  Cycle:    546 Energy:      -395.749971  Gnorm:      0.000896  CPU:   31.366
  Cycle:    547 Energy:      -395.750007  Gnorm:      0.002006  CPU:   31.426
  Cycle:    548 Energy:      -395.750080  Gnorm:      0.003492  CPU:   31.486
  ** Hessian calculated **
  Cycle:    549 Energy:      -395.750149  Gnorm:      0.001634  CPU:   31.585
  Cycle:    550 Energy:      -395.750185  Gnorm:      0.001324  CPU:   31.635
  Cycle:    551 Energy:      -395.750200  Gnorm:      0.001029  CPU:   31.684
  Cycle:    552 Energy:      -395.750229  Gnorm:      0.001886  CPU:   31.744
  Cycle:    553 Energy:      -395.750295  Gnorm:      0.002223  CPU:   31.803
  Cycle:    554 Energy:      -395.750403  Gnorm:      0.003378  CPU:   31.863
  Cycle:    555 Energy:      -395.750726  Gnorm:      0.003926  CPU:   31.934
  Cycle:    556 Energy:      -395.751283  Gnorm:      0.004127  CPU:   32.004
  Cycle:    557 Energy:      -395.752145  Gnorm:      0.005532  CPU:   32.075
  Cycle:    558 Energy:      -395.753676  Gnorm:      0.006913  CPU:   32.157
  ** Hessian calculated **
  Cycle:    559 Energy:      -395.754305  Gnorm:      0.006861  CPU:   32.256
  Cycle:    560 Energy:      -395.754709  Gnorm:      0.004345  CPU:   32.305
  Cycle:    561 Energy:      -395.754927  Gnorm:      0.003998  CPU:   32.354
  Cycle:    562 Energy:      -395.755124  Gnorm:      0.003480  CPU:   32.414
  Cycle:    563 Energy:      -395.755273  Gnorm:      0.002701  CPU:   32.463
  Cycle:    564 Energy:      -395.755394  Gnorm:      0.003276  CPU:   32.512
  Cycle:    565 Energy:      -395.755506  Gnorm:      0.001875  CPU:   32.560
  Cycle:    566 Energy:      -395.755568  Gnorm:      0.002038  CPU:   32.610
  Cycle:    567 Energy:      -395.755621  Gnorm:      0.001497  CPU:   32.669
  Cycle:    568 Energy:      -395.755640  Gnorm:      0.001381  CPU:   32.718
  ** Hessian calculated **
  Cycle:    569 Energy:      -395.755654  Gnorm:      0.001227  CPU:   32.817
  Cycle:    570 Energy:      -395.755685  Gnorm:      0.001768  CPU:   32.877
  Cycle:    571 Energy:      -395.755726  Gnorm:      0.001472  CPU:   32.937
  Cycle:    572 Energy:      -395.755808  Gnorm:      0.002692  CPU:   32.997
  Cycle:    573 Energy:      -395.755891  Gnorm:      0.002368  CPU:   33.046
  Cycle:    574 Energy:      -395.756037  Gnorm:      0.003108  CPU:   33.106
  Cycle:    575 Energy:      -395.756205  Gnorm:      0.003694  CPU:   33.165
  Cycle:    576 Energy:      -395.756454  Gnorm:      0.004688  CPU:   33.225
  Cycle:    577 Energy:      -395.756830  Gnorm:      0.005628  CPU:   33.285
  Cycle:    578 Energy:      -395.757268  Gnorm:      0.006265  CPU:   33.344
  ** Hessian calculated **
  Cycle:    579 Energy:      -395.757658  Gnorm:      0.005291  CPU:   33.444
  Cycle:    580 Energy:      -395.758000  Gnorm:      0.004870  CPU:   33.504
  Cycle:    581 Energy:      -395.758231  Gnorm:      0.004830  CPU:   33.552
  Cycle:    582 Energy:      -395.758452  Gnorm:      0.003662  CPU:   33.602
  Cycle:    583 Energy:      -395.758614  Gnorm:      0.002781  CPU:   33.651
  Cycle:    584 Energy:      -395.758726  Gnorm:      0.002853  CPU:   33.699
  Cycle:    585 Energy:      -395.758819  Gnorm:      0.002014  CPU:   33.748
  Cycle:    586 Energy:      -395.758875  Gnorm:      0.001891  CPU:   33.797
  Cycle:    587 Energy:      -395.758913  Gnorm:      0.001308  CPU:   33.846
  Cycle:    588 Energy:      -395.758928  Gnorm:      0.001339  CPU:   33.895
  ** Hessian calculated **
  Cycle:    589 Energy:      -395.758941  Gnorm:      0.001214  CPU:   33.994
  Cycle:    590 Energy:      -395.758975  Gnorm:      0.001802  CPU:   34.054
  Cycle:    591 Energy:      -395.759025  Gnorm:      0.001839  CPU:   34.114
  Cycle:    592 Energy:      -395.759091  Gnorm:      0.002515  CPU:   34.174
  Cycle:    593 Energy:      -395.759185  Gnorm:      0.002464  CPU:   34.223
  Cycle:    594 Energy:      -395.759337  Gnorm:      0.003555  CPU:   34.283
  Cycle:    595 Energy:      -395.759538  Gnorm:      0.003913  CPU:   34.331
  Cycle:    596 Energy:      -395.759784  Gnorm:      0.004579  CPU:   34.391
  Cycle:    597 Energy:      -395.760101  Gnorm:      0.005180  CPU:   34.451
  Cycle:    598 Energy:      -395.760507  Gnorm:      0.006279  CPU:   34.500
  ** Hessian calculated **
  Cycle:    599 Energy:      -395.760903  Gnorm:      0.005126  CPU:   34.599
  Cycle:    600 Energy:      -395.761213  Gnorm:      0.004459  CPU:   34.648
  Cycle:    601 Energy:      -395.761454  Gnorm:      0.004126  CPU:   34.708
  Cycle:    602 Energy:      -395.761652  Gnorm:      0.003514  CPU:   34.768
  Cycle:    603 Energy:      -395.761814  Gnorm:      0.002496  CPU:   34.817
  Cycle:    604 Energy:      -395.761916  Gnorm:      0.002681  CPU:   34.866
  Cycle:    605 Energy:      -395.761994  Gnorm:      0.001914  CPU:   34.915
  Cycle:    606 Energy:      -395.762050  Gnorm:      0.001859  CPU:   34.964
  Cycle:    607 Energy:      -395.762086  Gnorm:      0.001252  CPU:   35.013
  Cycle:    608 Energy:      -395.762100  Gnorm:      0.001365  CPU:   35.062
  ** Hessian calculated **
  Cycle:    609 Energy:      -395.762114  Gnorm:      0.001237  CPU:   35.161
  Cycle:    610 Energy:      -395.762148  Gnorm:      0.001822  CPU:   35.221
  Cycle:    611 Energy:      -395.762199  Gnorm:      0.001853  CPU:   35.281
  Cycle:    612 Energy:      -395.762269  Gnorm:      0.002502  CPU:   35.330
  Cycle:    613 Energy:      -395.762362  Gnorm:      0.002432  CPU:   35.379
  Cycle:    614 Energy:      -395.762508  Gnorm:      0.003490  CPU:   35.439
  Cycle:    615 Energy:      -395.762700  Gnorm:      0.003809  CPU:   35.489
  Cycle:    616 Energy:      -395.762933  Gnorm:      0.004443  CPU:   35.549
  Cycle:    617 Energy:      -395.763231  Gnorm:      0.005033  CPU:   35.609
  Cycle:    618 Energy:      -395.763626  Gnorm:      0.006253  CPU:   35.658
  ** Hessian calculated **
  Cycle:    619 Energy:      -395.764014  Gnorm:      0.004989  CPU:   35.757
  Cycle:    620 Energy:      -395.764314  Gnorm:      0.004316  CPU:   35.817
  Cycle:    621 Energy:      -395.764537  Gnorm:      0.004648  CPU:   35.866
  Cycle:    622 Energy:      -395.764727  Gnorm:      0.003591  CPU:   35.915
  Cycle:    623 Energy:      -395.764875  Gnorm:      0.002542  CPU:   35.964
  Cycle:    624 Energy:      -395.764974  Gnorm:      0.002690  CPU:   36.013
  Cycle:    625 Energy:      -395.765050  Gnorm:      0.001849  CPU:   36.062
  Cycle:    626 Energy:      -395.765104  Gnorm:      0.001875  CPU:   36.111
  Cycle:    627 Energy:      -395.765141  Gnorm:      0.001310  CPU:   36.160
  Cycle:    628 Energy:      -395.765157  Gnorm:      0.001403  CPU:   36.209
  ** Hessian calculated **
  Cycle:    629 Energy:      -395.765172  Gnorm:      0.001268  CPU:   36.308
  Cycle:    630 Energy:      -395.765207  Gnorm:      0.001853  CPU:   36.368
  Cycle:    631 Energy:      -395.765259  Gnorm:      0.001871  CPU:   36.428
  Cycle:    632 Energy:      -395.765328  Gnorm:      0.002425  CPU:   36.477
  Cycle:    633 Energy:      -395.765417  Gnorm:      0.002391  CPU:   36.526
  Cycle:    634 Energy:      -395.765534  Gnorm:      0.004576  CPU:   36.586
  Cycle:    635 Energy:      -395.765729  Gnorm:      0.003542  CPU:   36.635
  Cycle:    636 Energy:      -395.765911  Gnorm:      0.004147  CPU:   36.684
  Cycle:    637 Energy:      -395.766185  Gnorm:      0.004972  CPU:   36.744
  Cycle:    638 Energy:      -395.766564  Gnorm:      0.005849  CPU:   36.803
  ** Hessian calculated **
  Cycle:    639 Energy:      -395.766917  Gnorm:      0.004812  CPU:   36.903
  Cycle:    640 Energy:      -395.767190  Gnorm:      0.004384  CPU:   36.952
  Cycle:    641 Energy:      -395.767401  Gnorm:      0.003687  CPU:   37.001
  Cycle:    642 Energy:      -395.767583  Gnorm:      0.003329  CPU:   37.050
  Cycle:    643 Energy:      -395.767721  Gnorm:      0.002394  CPU:   37.099
  Cycle:    644 Energy:      -395.767812  Gnorm:      0.002545  CPU:   37.148
  Cycle:    645 Energy:      -395.767888  Gnorm:      0.001930  CPU:   37.197
  Cycle:    646 Energy:      -395.767940  Gnorm:      0.001859  CPU:   37.246
  Cycle:    647 Energy:      -395.767977  Gnorm:      0.001352  CPU:   37.294
  Cycle:    648 Energy:      -395.767995  Gnorm:      0.001456  CPU:   37.343
  ** Hessian calculated **
  Cycle:    649 Energy:      -395.768012  Gnorm:      0.001341  CPU:   37.443
  Cycle:    650 Energy:      -395.768048  Gnorm:      0.001831  CPU:   37.503
  Cycle:    651 Energy:      -395.768097  Gnorm:      0.001895  CPU:   37.551
  Cycle:    652 Energy:      -395.768168  Gnorm:      0.002399  CPU:   37.600
  Cycle:    653 Energy:      -395.768250  Gnorm:      0.002297  CPU:   37.649
  Cycle:    654 Energy:      -395.768372  Gnorm:      0.003169  CPU:   37.699
  Cycle:    655 Energy:      -395.768535  Gnorm:      0.003321  CPU:   37.759
  Cycle:    656 Energy:      -395.768706  Gnorm:      0.004473  CPU:   37.819
  Cycle:    657 Energy:      -395.768934  Gnorm:      0.004330  CPU:   37.868
  Cycle:    658 Energy:      -395.769220  Gnorm:      0.005363  CPU:   37.917
  ** Hessian calculated **
  Cycle:    659 Energy:      -395.769497  Gnorm:      0.003918  CPU:   38.017
  Cycle:    660 Energy:      -395.769697  Gnorm:      0.003802  CPU:   38.066
  Cycle:    661 Energy:      -395.769855  Gnorm:      0.003186  CPU:   38.115
  Cycle:    662 Energy:      -395.769996  Gnorm:      0.003011  CPU:   38.164
  Cycle:    663 Energy:      -395.770107  Gnorm:      0.002758  CPU:   38.213
  Cycle:    664 Energy:      -395.770188  Gnorm:      0.002368  CPU:   38.261
  Cycle:    665 Energy:      -395.770253  Gnorm:      0.001967  CPU:   38.310
  Cycle:    666 Energy:      -395.770302  Gnorm:      0.001936  CPU:   38.359
  Cycle:    667 Energy:      -395.770346  Gnorm:      0.001379  CPU:   38.408
  Cycle:    668 Energy:      -395.770369  Gnorm:      0.001888  CPU:   38.457
  ** Hessian calculated **
  Cycle:    669 Energy:      -395.770392  Gnorm:      0.001346  CPU:   38.557
  Cycle:    670 Energy:      -395.770436  Gnorm:      0.001959  CPU:   38.617
  Cycle:    671 Energy:      -395.770493  Gnorm:      0.001938  CPU:   38.676
  Cycle:    672 Energy:      -395.770550  Gnorm:      0.002094  CPU:   38.725
  Cycle:    673 Energy:      -395.770619  Gnorm:      0.002091  CPU:   38.774
  Cycle:    674 Energy:      -395.770716  Gnorm:      0.002847  CPU:   38.823
  Cycle:    675 Energy:      -395.770815  Gnorm:      0.002145  CPU:   38.883
  Cycle:    676 Energy:      -395.770928  Gnorm:      0.003092  CPU:   38.932
  Cycle:    677 Energy:      -395.771085  Gnorm:      0.003763  CPU:   38.981
  Cycle:    678 Energy:      -395.771370  Gnorm:      0.006017  CPU:   39.041
  ** Hessian calculated **
  Cycle:    679 Energy:      -395.771629  Gnorm:      0.003427  CPU:   39.140
  Cycle:    680 Energy:      -395.771835  Gnorm:      0.003442  CPU:   39.189
  Cycle:    681 Energy:      -395.771947  Gnorm:      0.002719  CPU:   39.238
  Cycle:    682 Energy:      -395.772052  Gnorm:      0.003042  CPU:   39.287
  Cycle:    683 Energy:      -395.772160  Gnorm:      0.001890  CPU:   39.336
  Cycle:    684 Energy:      -395.772230  Gnorm:      0.002029  CPU:   39.385
  Cycle:    685 Energy:      -395.772296  Gnorm:      0.002442  CPU:   39.434
  Cycle:    686 Energy:      -395.772350  Gnorm:      0.001511  CPU:   39.483
  Cycle:    687 Energy:      -395.772387  Gnorm:      0.001361  CPU:   39.532
  Cycle:    688 Energy:      -395.772428  Gnorm:      0.002603  CPU:   39.614
  ** Hessian calculated **
  Cycle:    689 Energy:      -395.772459  Gnorm:      0.001377  CPU:   39.713
  Cycle:    690 Energy:      -395.772496  Gnorm:      0.001500  CPU:   39.773
  Cycle:    691 Energy:      -395.772546  Gnorm:      0.002421  CPU:   39.832
  Cycle:    692 Energy:      -395.772611  Gnorm:      0.001940  CPU:   39.881
  Cycle:    693 Energy:      -395.772677  Gnorm:      0.001876  CPU:   39.930
  Cycle:    694 Energy:      -395.772775  Gnorm:      0.002942  CPU:   39.990
  Cycle:    695 Energy:      -395.772881  Gnorm:      0.002532  CPU:   40.050
  Cycle:    696 Energy:      -395.772985  Gnorm:      0.003365  CPU:   40.099
  Cycle:    697 Energy:      -395.773175  Gnorm:      0.003417  CPU:   40.159
  Cycle:    698 Energy:      -395.773395  Gnorm:      0.005283  CPU:   40.208
  ** Hessian calculated **
  Cycle:    699 Energy:      -395.773605  Gnorm:      0.003281  CPU:   40.307
  Cycle:    700 Energy:      -395.773788  Gnorm:      0.003401  CPU:   40.367
  Cycle:    701 Energy:      -395.773904  Gnorm:      0.002620  CPU:   40.416
  Cycle:    702 Energy:      -395.773989  Gnorm:      0.003777  CPU:   40.465
  Cycle:    703 Energy:      -395.774096  Gnorm:      0.001888  CPU:   40.514
  Cycle:    704 Energy:      -395.774157  Gnorm:      0.002013  CPU:   40.563
  Cycle:    705 Energy:      -395.774222  Gnorm:      0.002402  CPU:   40.612
  Cycle:    706 Energy:      -395.774271  Gnorm:      0.001415  CPU:   40.661
  Cycle:    707 Energy:      -395.774318  Gnorm:      0.001561  CPU:   40.710
  Cycle:    708 Energy:      -395.774341  Gnorm:      0.001790  CPU:   40.759
  ** Hessian calculated **
  Cycle:    709 Energy:      -395.774362  Gnorm:      0.001436  CPU:   40.858
  Cycle:    710 Energy:      -395.774419  Gnorm:      0.001480  CPU:   40.918
  Cycle:    711 Energy:      -395.774472  Gnorm:      0.001797  CPU:   40.967
  Cycle:    712 Energy:      -395.774544  Gnorm:      0.001462  CPU:   41.016
  Cycle:    713 Energy:      -395.774606  Gnorm:      0.002678  CPU:   41.065
  Cycle:    714 Energy:      -395.774691  Gnorm:      0.002438  CPU:   41.114
  Cycle:    715 Energy:      -395.774804  Gnorm:      0.003040  CPU:   41.174
  Cycle:    716 Energy:      -395.774895  Gnorm:      0.002626  CPU:   41.223
  Cycle:    717 Energy:      -395.775129  Gnorm:      0.005391  CPU:   41.293
  Cycle:    718 Energy:      -395.775918  Gnorm:      0.007574  CPU:   41.364
  ** Hessian calculated **
  Cycle:    719 Energy:      -395.776279  Gnorm:      0.004245  CPU:   41.463
  Cycle:    720 Energy:      -395.776551  Gnorm:      0.003088  CPU:   41.512
  Cycle:    721 Energy:      -395.776661  Gnorm:      0.002673  CPU:   41.561
  Cycle:    722 Energy:      -395.776758  Gnorm:      0.003034  CPU:   41.610
  Cycle:    723 Energy:      -395.776890  Gnorm:      0.002222  CPU:   41.659
  Cycle:    724 Energy:      -395.776940  Gnorm:      0.001532  CPU:   41.719
  Cycle:    725 Energy:      -395.777018  Gnorm:      0.001760  CPU:   41.779
  Cycle:    726 Energy:      -395.777084  Gnorm:      0.002024  CPU:   41.828
  Cycle:    727 Energy:      -395.777119  Gnorm:      0.001396  CPU:   41.877
  Cycle:    728 Energy:      -395.777147  Gnorm:      0.002149  CPU:   41.926
  ** Hessian calculated **
  Cycle:    729 Energy:      -395.777172  Gnorm:      0.001284  CPU:   42.025
  Cycle:    730 Energy:      -395.777211  Gnorm:      0.001864  CPU:   42.085
  Cycle:    731 Energy:      -395.777270  Gnorm:      0.001869  CPU:   42.145
  Cycle:    732 Energy:      -395.777339  Gnorm:      0.002074  CPU:   42.194
  Cycle:    733 Energy:      -395.777392  Gnorm:      0.001937  CPU:   42.243
  Cycle:    734 Energy:      -395.777503  Gnorm:      0.003323  CPU:   42.303
  Cycle:    735 Energy:      -395.777607  Gnorm:      0.002477  CPU:   42.352
  Cycle:    736 Energy:      -395.777731  Gnorm:      0.003364  CPU:   42.401
  Cycle:    737 Energy:      -395.777897  Gnorm:      0.003902  CPU:   42.450
  Cycle:    738 Energy:      -395.778234  Gnorm:      0.005922  CPU:   42.510
  ** Hessian calculated **
  Cycle:    739 Energy:      -395.778555  Gnorm:      0.004046  CPU:   42.609
  Cycle:    740 Energy:      -395.778740  Gnorm:      0.003248  CPU:   42.658
  Cycle:    741 Energy:      -395.778860  Gnorm:      0.002710  CPU:   42.707
  Cycle:    742 Energy:      -395.778956  Gnorm:      0.003017  CPU:   42.756
  Cycle:    743 Energy:      -395.779076  Gnorm:      0.002145  CPU:   42.805
  Cycle:    744 Energy:      -395.779127  Gnorm:      0.001920  CPU:   42.854
  Cycle:    745 Energy:      -395.779200  Gnorm:      0.001989  CPU:   42.915
  Cycle:    746 Energy:      -395.779255  Gnorm:      0.001837  CPU:   42.964
  Cycle:    747 Energy:      -395.779297  Gnorm:      0.001383  CPU:   43.013
  Cycle:    748 Energy:      -395.779321  Gnorm:      0.001916  CPU:   43.062
  ** Hessian calculated **
  Cycle:    749 Energy:      -395.779342  Gnorm:      0.001347  CPU:   43.161
  Cycle:    750 Energy:      -395.779384  Gnorm:      0.001805  CPU:   43.221
  Cycle:    751 Energy:      -395.779438  Gnorm:      0.002040  CPU:   43.270
  Cycle:    752 Energy:      -395.779511  Gnorm:      0.001861  CPU:   43.319
  Cycle:    753 Energy:      -395.779561  Gnorm:      0.002138  CPU:   43.368
  Cycle:    754 Energy:      -395.779675  Gnorm:      0.003103  CPU:   43.428
  Cycle:    755 Energy:      -395.779775  Gnorm:      0.002615  CPU:   43.476
  Cycle:    756 Energy:      -395.779888  Gnorm:      0.003198  CPU:   43.525
  Cycle:    757 Energy:      -395.780071  Gnorm:      0.004063  CPU:   43.585
  Cycle:    758 Energy:      -395.780374  Gnorm:      0.005760  CPU:   43.645
  ** Hessian calculated **
  Cycle:    759 Energy:      -395.780668  Gnorm:      0.004091  CPU:   43.744
  Cycle:    760 Energy:      -395.780858  Gnorm:      0.003184  CPU:   43.793
  Cycle:    761 Energy:      -395.780969  Gnorm:      0.002639  CPU:   43.842
  Cycle:    762 Energy:      -395.781070  Gnorm:      0.003027  CPU:   43.891
  Cycle:    763 Energy:      -395.781183  Gnorm:      0.002213  CPU:   43.939
  Cycle:    764 Energy:      -395.781235  Gnorm:      0.001867  CPU:   43.988
  Cycle:    765 Energy:      -395.781305  Gnorm:      0.002154  CPU:   44.037
  Cycle:    766 Energy:      -395.781362  Gnorm:      0.001786  CPU:   44.086
  Cycle:    767 Energy:      -395.781403  Gnorm:      0.001424  CPU:   44.135
  Cycle:    768 Energy:      -395.781426  Gnorm:      0.001843  CPU:   44.184
  ** Hessian calculated **
  Cycle:    769 Energy:      -395.781448  Gnorm:      0.001393  CPU:   44.283
  Cycle:    770 Energy:      -395.781490  Gnorm:      0.001725  CPU:   44.343
  Cycle:    771 Energy:      -395.781544  Gnorm:      0.002135  CPU:   44.392
  Cycle:    772 Energy:      -395.781616  Gnorm:      0.001811  CPU:   44.441
  Cycle:    773 Energy:      -395.781668  Gnorm:      0.002219  CPU:   44.491
  Cycle:    774 Energy:      -395.781775  Gnorm:      0.003065  CPU:   44.550
  Cycle:    775 Energy:      -395.781881  Gnorm:      0.002609  CPU:   44.599
  Cycle:    776 Energy:      -395.781985  Gnorm:      0.003175  CPU:   44.648
  Cycle:    777 Energy:      -395.782177  Gnorm:      0.003950  CPU:   44.708
  Cycle:    778 Energy:      -395.782456  Gnorm:      0.005775  CPU:   44.768
  ** Hessian calculated **
  Cycle:    779 Energy:      -395.785516  Gnorm:      0.005776  CPU:   44.911
  Cycle:    780 Energy:      -395.790377  Gnorm:      0.005784  CPU:   44.992
  Cycle:    781 Energy:      -395.797753  Gnorm:      0.005805  CPU:   45.074
  Cycle:    782 Energy:      -395.806843  Gnorm:      0.005867  CPU:   45.145
  Cycle:    783 Energy:      -395.821631  Gnorm:      0.006270  CPU:   45.227
  Cycle:    784 Energy:      -395.838670  Gnorm:      0.007647  CPU:   45.297
  Cycle:    785 Energy:      -395.857041  Gnorm:      0.010731  CPU:   45.368
  Cycle:    786 Energy:      -395.868003  Gnorm:      0.011602  CPU:   45.428
  Cycle:    787 Energy:      -395.869517  Gnorm:      0.001335  CPU:   45.488
  Cycle:    788 Energy:      -395.869584  Gnorm:      0.000831  CPU:   45.537
  ** Hessian calculated **
  Cycle:    789 Energy:      -395.869604  Gnorm:      0.000399  CPU:   45.636


  **** Optimisation achieved ****


  Final energy =    -395.86961110 eV
  Final Gnorm  =       0.00000253

  Components of energy : 

--------------------------------------------------------------------------------
  Interatomic potentials     =          70.15786296 eV    
  Monopole - monopole (real) =         190.13935097 eV    
  Monopole - monopole (recip)=        -656.16682502 eV    
  Monopole - monopole (total)=        -466.02747406 eV    
--------------------------------------------------------------------------------
  Total lattice energy       =        -395.86961110 eV    
--------------------------------------------------------------------------------
  Total lattice energy       =          -38195.3661 kJ/(mole unit cells)
--------------------------------------------------------------------------------

  Final fractional coordinates of atoms :

--------------------------------------------------------------------------------
   No.  Atomic        x           y          z          Radius
        Label       (Frac)      (Frac)     (Frac)       (Angs) 
--------------------------------------------------------------------------------
     1  Li    c     0.375000    0.375000    0.875000    0.000000
     2  Li    c     0.641759    0.877920    0.126724    0.000000
     3  Li    c     0.369131    0.863714    0.393478    0.000000
     4  Li    c     0.982656    0.501963    0.222419    0.000000
     5  Li    c     0.651628    0.139317    0.390768    0.000000
     6  Li    c     0.899300    0.888193    0.868491    0.000000
     7  Li    c     0.623682    0.591501    0.377662    0.000000
     8  Li    c     0.621737    0.869449    0.614263    0.000000
     9  Li    c     0.353090    0.870572    0.843022    0.000000
    10  Li    c     0.397515    0.367207    0.371094    0.000000
    11  Li    c     0.867406    0.387754    0.884445    0.000000
[...]
      5 x          0.500000      0.651628     0.151628    Fractional  30.33
      5 y          0.000000      0.139317     0.139317    Fractional   0.00
      5 z          0.500000      0.390768     0.109232    Fractional  21.85
      6 x          0.875000      0.899300     0.024300    Fractional   2.78
      6 y          0.875000      0.888193     0.013193    Fractional   1.51
      6 z          0.114000      0.868491     0.245509    Fractional 215.36
      7 x          0.500000      0.623682     0.123682    Fractional  24.74
      7 y          0.500000      0.591501     0.091501    Fractional  18.30
      7 z          0.500000      0.377662     0.122338    Fractional  24.47
      8 x          0.500000      0.621737     0.121737    Fractional  24.35
      8 y          0.750000      0.869449     0.119449    Fractional  15.93
      8 z          0.750000      0.614263     0.135737    Fractional  18.10
      9 x          0.250000      0.353090     0.103090    Fractional  41.24
      9 y          0.750000      0.870572     0.120572    Fractional  16.08
      9 z          0.000000      0.843022     0.843022    Fractional   0.00
     10 x          0.250000      0.397515     0.147515    Fractional  59.01
     10 y          0.250000      0.367207     0.117207    Fractional  46.88
     10 z          0.500000      0.371094     0.128906    Fractional  25.78
     11 x          0.750000      0.867406     0.117406    Fractional  15.65
     11 y          0.250000      0.387754     0.137754    Fractional  55.10
     11 z          0.000000      0.884445     0.884445    Fractional   0.00
     12 x          0.500000      0.630951     0.130951    Fractional  26.19
     12 y          0.250000      0.373137     0.123137    Fractional  49.25
     12 z          0.250000      0.125690     0.124310    Fractional  49.72
     13 x          0.000000      0.122957     0.122957    Fractional   0.00
     13 y          0.750000      0.894307     0.144307    Fractional  19.24
     13 z          0.250000      0.110369     0.139631    Fractional  55.85
     14 x          0.750000      0.870437     0.120437    Fractional  16.06
     14 y          0.750000      0.885934     0.135934    Fractional  18.12
     14 z          0.500000      0.355092     0.144908    Fractional  28.98
     15 x          0.250000      0.383317     0.133317    Fractional  53.33
     15 y          0.000000      0.110770     0.110770    Fractional   0.00
     15 z          0.750000      0.629104     0.120896    Fractional  16.12
     16 x          0.750000      0.889992     0.139992    Fractional  18.67
     16 y          0.000000      0.133005     0.133005    Fractional   0.00
     16 z          0.250000      0.109307     0.140693    Fractional  56.28
     17 x          0.000000      0.125964     0.125964    Fractional   0.00
     17 y          0.500000      0.639771     0.139771    Fractional  27.95
     17 z          0.000000      0.882661     0.882661    Fractional   0.00
     18 x          0.250000      0.376254     0.126254    Fractional  50.50
     18 y          0.500000      0.625419     0.125419    Fractional  25.08
     18 z          0.250000      0.128673     0.121327    Fractional  48.53
     19 x          0.750000      0.876269     0.126269    Fractional  16.84
     19 y          0.500000      0.628928     0.128928    Fractional  25.79
     19 z          0.750000      0.608716     0.141284    Fractional  18.84
     20 x          0.000000      0.120395     0.120395    Fractional   0.00
     20 y          0.250000      0.378873     0.128873    Fractional  51.55
     20 z          0.750000      0.617400     0.132600    Fractional  17.68
     21 x          0.500000      0.626675     0.126675    Fractional  25.34
     21 y          0.000000      0.126209     0.126209    Fractional   0.00
     21 z          0.000000      0.868990     0.868990    Fractional   0.00
     22 x          0.000000      0.122665     0.122665    Fractional   0.00
     22 y          0.000000      0.125776     0.125776    Fractional   0.00
     22 z          0.500000      0.368923     0.131077    Fractional  26.22
     23 x          0.254350      0.376627     0.122277    Fractional  48.07
     23 y          0.254350      0.389465     0.135115    Fractional  53.12
     23 z          0.254350      0.120366     0.133984    Fractional  52.68
     24 x          0.745650      0.868736     0.123086    Fractional  16.51
     24 y          0.504350      0.638357     0.134007    Fractional  26.57
     24 z          0.504350      0.372160     0.132190    Fractional  26.21
     25 x          0.495650      0.623940     0.128290    Fractional  25.88
     25 y          0.995650      0.121097     0.125447    Fractional  12.60
     25 z          0.754350      0.633380     0.120970    Fractional  16.04
     26 x          0.004350      0.128649     0.124299    Fractional2857.44
     26 y          0.745650      0.865341     0.119691    Fractional  16.05
     26 z          0.004350      0.884037     0.120313    Fractional  11.98
     27 x          0.254350      0.389443     0.135093    Fractional  53.11
     27 y          0.995650      0.126044     0.130394    Fractional  13.10
     27 z          0.995650      0.867089     0.128561    Fractional  12.91
     28 x          0.745650      0.876520     0.130870    Fractional  17.55
     28 y          0.745650      0.864114     0.118464    Fractional  15.89
     28 z          0.745650      0.616059     0.129591    Fractional  17.38
     29 x          0.495650      0.614978     0.119328    Fractional  24.08
     29 y          0.254350      0.355697     0.101347    Fractional  39.85
     29 z          0.495650      0.356253     0.139397    Fractional  28.12
     30 x          0.004350      0.140776     0.136426    Fractional3136.23
     30 y          0.504350      0.637056     0.132706    Fractional  26.31
     30 z          0.245650      0.128627     0.117023    Fractional  47.64
     31 x          0.504350      0.633824     0.129474    Fractional  25.67
     31 y          0.745650      0.910854     0.165204    Fractional  22.16
     31 z          0.504350      0.367608     0.136742    Fractional  27.11
     32 x          0.754350      0.886311     0.131961    Fractional  17.49
     32 y          0.495650      0.627556     0.131906    Fractional  26.61
     32 z          0.995650      0.845526     0.150124    Fractional  15.08
     33 x          0.004350      0.105812     0.101462    Fractional2332.47
     33 y          0.004350      0.140834     0.136484    Fractional3137.56
     33 z          0.745650      0.609331     0.136319    Fractional  18.28
     34 x          0.995650      0.119358     0.123708    Fractional  12.42
     34 y          0.254350      0.385488     0.131138    Fractional  51.56
     34 z          0.995650      0.853234     0.142416    Fractional  14.30
     35 x          0.495650      0.613426     0.117776    Fractional  23.76
     35 y          0.495650      0.627685     0.132035    Fractional  26.64
     35 z          0.254350      0.135243     0.119107    Fractional  46.83
     36 x          0.245650      0.357402     0.111752    Fractional  45.49
     36 y          0.004350      0.125476     0.121126    Fractional2784.50
     36 z          0.504350      0.386467     0.117883    Fractional  23.37
     37 x          0.254350      0.391971     0.137621    Fractional  54.11
     37 y          0.754350      0.882332     0.127982    Fractional  16.97
     37 z          0.754350      0.617987     0.136363    Fractional  18.08
     38 x          0.504350      0.631550     0.127200    Fractional  25.22
     38 y          0.004350      0.123646     0.119296    Fractional2742.45
     38 z          0.245650      0.106439     0.139211    Fractional  56.67
     39 x          0.745650      0.862998     0.117348    Fractional  15.74
     39 y          0.245650      0.371759     0.126109    Fractional  51.34
     39 z          0.245650      0.105201     0.140449    Fractional  57.17
     40 x          0.995650      0.116518     0.120868    Fractional  12.14
     40 y          0.495650      0.616597     0.120947    Fractional  24.40
     40 z          0.754350      0.596027     0.158323    Fractional  20.99
     41 x          0.254350      0.378745     0.124395    Fractional  48.91
     41 y          0.495650      0.617641     0.121991    Fractional  24.61
     41 z          0.495650      0.367116     0.128534    Fractional  25.93
     42 x          0.745650      0.863076     0.117426    Fractional  15.75
     42 y          0.004350      0.133451     0.129101    Fractional2967.84
     42 z          0.004350      0.863712     0.140638    Fractional  14.00
     43 x          0.245650      0.369048     0.123398    Fractional  50.23
     43 y          0.504350      0.624435     0.120085    Fractional  23.81
     43 z          0.004350      0.890817     0.113533    Fractional  11.30
     44 x          0.995650      0.128913     0.133263    Fractional  13.38
     44 y          0.995650      0.136519     0.140869    Fractional  14.15
     44 z          0.254350      0.133572     0.120778    Fractional  47.48
     45 x          0.504350      0.641193     0.136843    Fractional  27.13
     45 y          0.504350      0.623962     0.119612    Fractional  23.72
     45 z          0.745650      0.606269     0.139381    Fractional  18.69
     46 x          0.754350      0.889584     0.135234    Fractional  17.93
     46 y          0.995650      0.128597     0.132947    Fractional  13.35
     46 z          0.495650      0.362992     0.132658    Fractional  26.76
     47 x          0.004350      0.134508     0.130158    Fractional2992.15
     47 y          0.245650      0.366529     0.120879    Fractional  49.21
     47 z          0.504350      0.376623     0.127727    Fractional  25.33
     48 x          0.495650      0.629698     0.134048    Fractional  27.04
     48 y          0.754350      0.889484     0.135134    Fractional  17.91
     48 z          0.995650      0.872444     0.123206    Fractional  12.37
     49 x          0.504350      0.619544     0.115194    Fractional  22.84
     49 y          0.245650      0.362431     0.116781    Fractional  47.54
     49 z          0.004350      0.876477     0.127873    Fractional  12.73
     50 x          0.995650      0.124611     0.128961    Fractional  12.95
     50 y          0.754350      0.890570     0.136220    Fractional  18.06
     50 z          0.495650      0.367965     0.127685    Fractional  25.76
     51 x          0.754350      0.881406     0.127056    Fractional  16.84
     51 y          0.254350      0.388207     0.133857    Fractional  52.63
     51 z          0.754350      0.608054     0.146296    Fractional  19.39
     52 x          0.245650      0.380667     0.135017    Fractional  54.96
     52 y          0.745650      0.861690     0.116040    Fractional  15.56
     52 z          0.245650      0.135207     0.110443    Fractional  44.96
     53 x          0.754350      0.879107     0.124757    Fractional  16.54
     53 y          0.754350      0.891099     0.136749    Fractional  18.13
     53 z          0.254350      0.114576     0.139774    Fractional  54.95
     54 x          0.245650      0.355019     0.109369    Fractional  44.52
     54 y          0.245650      0.372554     0.126904    Fractional  51.66
     54 z          0.745650      0.622523     0.123127    Fractional  16.51
     55 x          0.254350      0.380683     0.126333    Fractional  49.67
     55 y          0.254350      0.407152     0.152802    Fractional  60.08
     55 z          0.254350      0.120349     0.134001    Fractional  52.68
     56 x          0.745650      0.868818     0.123168    Fractional  16.52
     56 y          0.504350      0.636908     0.132558    Fractional  26.28
     56 z          0.504350      0.385369     0.118981    Fractional  23.59
     57 x          0.495650      0.619291     0.123641    Fractional  24.95
     57 y          0.995650      0.117658     0.122008    Fractional  12.25
     57 z          0.754350      0.645722     0.108628    Fractional  14.40
     58 x          0.004350      0.128843     0.124493    Fractional2861.90
     58 y          0.745650      0.859851     0.114201    Fractional  15.32
     58 z          0.004350      0.889259     0.115091    Fractional  11.46
     59 x          0.254350      0.405999     0.151649    Fractional  59.62
     59 y          0.995650      0.126632     0.130982    Fractional  13.16
     59 z          0.995650      0.860726     0.134924    Fractional  13.55
     60 x          0.745650      0.872645     0.126995    Fractional  17.03
     60 y          0.745650      0.845861     0.100211    Fractional  13.44
     60 z          0.745650      0.616159     0.129491    Fractional  17.37
     61 x          0.495650      0.608348     0.112698    Fractional  22.74
     61 y          0.254350      0.354322     0.099972    Fractional  39.30
     61 z          0.495650      0.352118     0.143532    Fractional  28.96
     62 x          0.004350      0.152517     0.148167    Fractional3406.14
     62 y          0.504350      0.634705     0.130355    Fractional  25.85
     62 z          0.245650      0.126922     0.118728    Fractional  48.33
     63 x          0.504350      0.636657     0.132307    Fractional  26.23
     63 y          0.745650      0.913968     0.168318    Fractional  22.57
     63 z          0.504350      0.367385     0.136965    Fractional  27.16
     64 x          0.754350      0.890970     0.136620    Fractional  18.11
     64 y          0.495650      0.625999     0.130349    Fractional  26.30
     64 z          0.995650      0.829016     0.166634    Fractional  16.74
     65 x          0.004350      0.111254     0.106904    Fractional2457.55
     65 y          0.004350      0.158021     0.153671    Fractional3532.68
     65 z          0.745650      0.592781     0.152869    Fractional  20.50
     66 x          0.995650      0.119312     0.123662    Fractional  12.42
     66 y          0.254350      0.389090     0.134740    Fractional  52.97
     66 z          0.995650      0.834667     0.160983    Fractional  16.17
     67 x          0.495650      0.597177     0.101527    Fractional  20.48
     67 y          0.495650      0.627433     0.131783    Fractional  26.59
     67 z          0.254350      0.139900     0.114450    Fractional  45.00
     68 x          0.245650      0.342300     0.096650    Fractional  39.34
     68 y          0.004350      0.127024     0.122674    Fractional2820.09
     68 z          0.504350      0.390454     0.113896    Fractional  22.58
     69 x          0.254350      0.396222     0.141872    Fractional  55.78
     69 y          0.754350      0.887677     0.133327    Fractional  17.67
     69 z          0.754350      0.617725     0.136625    Fractional  18.11
     70 x          0.504350      0.635269     0.130919    Fractional  25.96
     70 y          0.004350      0.123682     0.119332    Fractional2743.27
     70 z          0.245650      0.091978     0.153672    Fractional  62.56
     71 x          0.745650      0.863700     0.118050    Fractional  15.83
     71 y          0.245650      0.373905     0.128255    Fractional  52.21
     71 z          0.245650      0.103457     0.142193    Fractional  57.88
     72 x          0.995650      0.099921     0.104271    Fractional  10.47
     72 y          0.495650      0.599199     0.103549    Fractional  20.89
     72 z          0.754350      0.600801     0.153549    Fractional  20.36
     73 x          0.254350      0.383460     0.129110    Fractional  50.76
     73 y          0.495650      0.618031     0.122381    Fractional  24.69
     73 z          0.495650      0.350176     0.145474    Fractional  29.35
     74 x          0.745650      0.846631     0.100981    Fractional  13.54
     74 y          0.004350      0.132362     0.128012    Fractional2942.80
     74 z          0.004350      0.869345     0.135005    Fractional  13.44
     75 x          0.245650      0.363919     0.118269    Fractional  48.15
     75 y          0.504350      0.624568     0.120218    Fractional  23.84
     75 z          0.004350      0.907472     0.096878    Fractional   9.65
     76 x          0.995650      0.122536     0.126886    Fractional  12.74
     76 y          0.995650      0.130581     0.134931    Fractional  13.55
     76 z          0.254350      0.152319     0.102031    Fractional  40.11
     77 x          0.504350      0.659589     0.155239    Fractional  30.78
     77 y          0.504350      0.628539     0.124189    Fractional  24.62
     77 z          0.745650      0.599252     0.146398    Fractional  19.63
     78 x          0.754350      0.902784     0.148434    Fractional  19.68
     78 y          0.995650      0.123872     0.128222    Fractional  12.88
     78 z          0.495650      0.359947     0.135703    Fractional  27.38
     79 x          0.004350      0.133111     0.128761    Fractional2960.03
     79 y          0.245650      0.353652     0.108002    Fractional  43.97
     79 z          0.504350      0.390471     0.113879    Fractional  22.58
     80 x          0.495650      0.629947     0.134297    Fractional  27.10
     80 y          0.754350      0.906664     0.152314    Fractional  20.19
     80 z          0.995650      0.872452     0.123198    Fractional  12.37
     81 x          0.504350      0.619776     0.115426    Fractional  22.89
     81 y          0.245650      0.345118     0.099468    Fractional  40.49
     81 z          0.004350      0.880774     0.123576    Fractional  12.30
     82 x          0.995650      0.125253     0.129603    Fractional  13.02
     82 y          0.754350      0.909015     0.154665    Fractional  20.50
     82 z          0.495650      0.364340     0.131310    Fractional  26.49
     83 x          0.754350      0.899372     0.145022    Fractional  19.22
     83 y          0.254350      0.404739     0.150389    Fractional  59.13
     83 z          0.754350      0.611808     0.142542    Fractional  18.90
     84 x          0.245650      0.380090     0.134440    Fractional  54.73
     84 y          0.745650      0.844147     0.098497    Fractional  13.21
     84 z          0.245650      0.136246     0.109404    Fractional  44.54
     85 x          0.754350      0.878724     0.124374    Fractional  16.49
     85 y          0.754350      0.895097     0.140747    Fractional  18.66
     85 z          0.254350      0.115359     0.138991    Fractional  54.65
     86 x          0.245650      0.336483     0.090833    Fractional  36.98
     86 y          0.245650      0.369383     0.123733    Fractional  50.37
     86 z          0.745650      0.622212     0.123438    Fractional  16.55
--------------------------------------------------------------------------------


  Time to end of optimisation =      45.6861 seconds


  Peak dynamic memory used =       3.43 MB 


  Timing analysis for GULP :

--------------------------------------------------------------------------------
  Task / Subroutine                                          Time (Seconds)
--------------------------------------------------------------------------------
  Calculation of reciprocal space energy and derivatives          2.7451
  Calculation of real space energy and derivatives               42.4520
  Calculation and manipulation of Hessian matrix                  0.0109
  Calculation of matrix inversion                                 0.3138
  Symmetry generation of equivalent positions                     0.0001
  Global summation overhead                                       0.0012
--------------------------------------------------------------------------------
  Total CPU time                                                 45.6862
--------------------------------------------------------------------------------


  Dump file written as halospinel.grs


  Job Finished at 13:01.43 28th July       2022                               

