********************************************************************************
*                       GENERAL UTILITY LATTICE PROGRAM                        *
*                                 Julian Gale                                  *
*                       Curtin Institute for Computation                       *
*                    School of Molecular and Life Sciences                     *
*                    Curtin University, Western Australia                      *
********************************************************************************
* Version = 5.2.0 * Last modified =   1st June 2020                            *
********************************************************************************
*  optimise     - perform optimisation run                                     *
*  conp         - constant pressure calculation                                *
*  compare      - compare initial and final structures                         *
********************************************************************************

  Job Started  at 13:01.49 28th July       2022                               

  Number of CPUs =     1


  Total number of configurations input =      1

********************************************************************************
*  Input for Configuration =   1                                               *
********************************************************************************

  Formula = Li17Sc5Cl32                                                 

  Number of irreducible atoms/shells =      86


  Total number atoms/shells =      86

  Dimensionality = 3               :  Bulk   



  Cartesian lattice vectors (Angstroms) :

       10.403700    0.000000    0.000000
        0.000000   10.403700    0.000000
        0.000000    0.000000   10.403700

  Cell parameters (Angstroms/Degrees):

  a =      10.4037    alpha =  90.0000
  b =      10.4037    beta  =  90.0000
  c =      10.4037    gamma =  90.0000

  Initial cell volume =        1126.065003 Angs**3

  Temperature of configuration =   0.00     K 

  Pressure of configuration =         0.000 GPa 

  Fractional coordinates of asymmetric unit :

--------------------------------------------------------------------------------
   No.  Atomic       x           y          z         Charge      Occupancy
        Label      (Frac)      (Frac)     (Frac)        (e)         (Frac)  
--------------------------------------------------------------------------------
      1 Li    c    0.375000    0.375000    0.875000     1.00000    1.000000    
      2 Li    c    0.500000 *  0.750000 *  0.250000 *   1.00000    1.000000    
      3 Li    c    0.250000 *  0.750000 *  0.500000 *   1.00000    1.000000    
      4 Li    c    0.750000 *  0.500000 *  0.250000 *   1.00000    1.000000    
      5 Li    c    0.500000 *  0.000000 *  0.500000 *   1.00000    1.000000    
      6 Li    c    0.875000 *  0.875000 *  0.114000 *   1.00000    1.000000    
      7 Li    c    0.500000 *  0.500000 *  0.500000 *   1.00000    1.000000    
      8 Li    c    0.500000 *  0.750000 *  0.750000 *   1.00000    1.000000    
      9 Li    c    0.250000 *  0.750000 *  0.000000 *   1.00000    1.000000    
     10 Li    c    0.250000 *  0.250000 *  0.500000 *   1.00000    1.000000    
     11 Li    c    0.750000 *  0.250000 *  0.000000 *   1.00000    1.000000    
     12 Li    c    0.500000 *  0.250000 *  0.250000 *   1.00000    1.000000    
     13 Li    c    0.000000 *  0.750000 *  0.250000 *   1.00000    1.000000    
     14 Li    c    0.750000 *  0.750000 *  0.500000 *   1.00000    1.000000    
     15 Li    c    0.250000 *  0.000000 *  0.750000 *   1.00000    1.000000    
     16 Li    c    0.750000 *  0.000000 *  0.250000 *   1.00000    1.000000    
     17 Li    c    0.000000 *  0.500000 *  0.000000 *   1.00000    1.000000    
     18 Sc    c    0.250000 *  0.500000 *  0.250000 *   3.00000    1.000000    
     19 Sc    c    0.750000 *  0.500000 *  0.750000 *   3.00000    1.000000    
     20 Sc    c    0.000000 *  0.250000 *  0.750000 *   3.00000    1.000000    
     21 Sc    c    0.500000 *  0.000000 *  0.000000 *   3.00000    1.000000    
     22 Sc    c    0.000000 *  0.000000 *  0.500000 *   3.00000    1.000000    
     23 Cl    c    0.254350 *  0.254350 *  0.254350 *   1.48500    1.000000    
     24 Cl    c    0.745650 *  0.504350 *  0.504350 *   1.48500    1.000000    
     25 Cl    c    0.495650 *  0.995650 *  0.754350 *   1.48500    1.000000    
     26 Cl    c    0.004350 *  0.745650 *  0.004350 *   1.48500    1.000000    
     27 Cl    c    0.254350 *  0.995650 *  0.995650 *   1.48500    1.000000    
     28 Cl    c    0.745650 *  0.745650 *  0.745650 *   1.48500    1.000000    
     29 Cl    c    0.495650 *  0.254350 *  0.495650 *   1.48500    1.000000    
     30 Cl    c    0.004350 *  0.504350 *  0.245650 *   1.48500    1.000000    
     31 Cl    c    0.504350 *  0.745650 *  0.504350 *   1.48500    1.000000    
     32 Cl    c    0.754350 *  0.495650 *  0.995650 *   1.48500    1.000000    
     33 Cl    c    0.004350 *  0.004350 *  0.745650 *   1.48500    1.000000    
     34 Cl    c    0.995650 *  0.254350 *  0.995650 *   1.48500    1.000000    
     35 Cl    c    0.495650 *  0.495650 *  0.254350 *   1.48500    1.000000    
     36 Cl    c    0.245650 *  0.004350 *  0.504350 *   1.48500    1.000000    
     37 Cl    c    0.254350 *  0.754350 *  0.754350 *   1.48500    1.000000    
     38 Cl    c    0.504350 *  0.004350 *  0.245650 *   1.48500    1.000000    
     39 Cl    c    0.745650 *  0.245650 *  0.245650 *   1.48500    1.000000    
     40 Cl    c    0.995650 *  0.495650 *  0.754350 *   1.48500    1.000000    
     41 Cl    c    0.254350 *  0.495650 *  0.495650 *   1.48500    1.000000    
     42 Cl    c    0.745650 *  0.004350 *  0.004350 *   1.48500    1.000000    
     43 Cl    c    0.245650 *  0.504350 *  0.004350 *   1.48500    1.000000    
     44 Cl    c    0.995650 *  0.995650 *  0.254350 *   1.48500    1.000000    
     45 Cl    c    0.504350 *  0.504350 *  0.745650 *   1.48500    1.000000    
     46 Cl    c    0.754350 *  0.995650 *  0.495650 *   1.48500    1.000000    
     47 Cl    c    0.004350 *  0.245650 *  0.504350 *   1.48500    1.000000    
     48 Cl    c    0.495650 *  0.754350 *  0.995650 *   1.48500    1.000000    
     49 Cl    c    0.504350 *  0.245650 *  0.004350 *   1.48500    1.000000    
     50 Cl    c    0.995650 *  0.754350 *  0.495650 *   1.48500    1.000000    
     51 Cl    c    0.754350 *  0.254350 *  0.754350 *   1.48500    1.000000    
     52 Cl    c    0.245650 *  0.745650 *  0.245650 *   1.48500    1.000000    
     53 Cl    c    0.754350 *  0.754350 *  0.254350 *   1.48500    1.000000    
     54 Cl    c    0.245650 *  0.245650 *  0.745650 *   1.48500    1.000000    
     55 Cl    s    0.254350 *  0.254350 *  0.254350 *  -2.48500    1.000000    
     56 Cl    s    0.745650 *  0.504350 *  0.504350 *  -2.48500    1.000000    
     57 Cl    s    0.495650 *  0.995650 *  0.754350 *  -2.48500    1.000000    
     58 Cl    s    0.004350 *  0.745650 *  0.004350 *  -2.48500    1.000000    
     59 Cl    s    0.254350 *  0.995650 *  0.995650 *  -2.48500    1.000000    
     60 Cl    s    0.745650 *  0.745650 *  0.745650 *  -2.48500    1.000000    
     61 Cl    s    0.495650 *  0.254350 *  0.495650 *  -2.48500    1.000000    
     62 Cl    s    0.004350 *  0.504350 *  0.245650 *  -2.48500    1.000000    
     63 Cl    s    0.504350 *  0.745650 *  0.504350 *  -2.48500    1.000000    
     64 Cl    s    0.754350 *  0.495650 *  0.995650 *  -2.48500    1.000000    
     65 Cl    s    0.004350 *  0.004350 *  0.745650 *  -2.48500    1.000000    
     66 Cl    s    0.995650 *  0.254350 *  0.995650 *  -2.48500    1.000000    
     67 Cl    s    0.495650 *  0.495650 *  0.254350 *  -2.48500    1.000000    
     68 Cl    s    0.245650 *  0.004350 *  0.504350 *  -2.48500    1.000000    
     69 Cl    s    0.254350 *  0.754350 *  0.754350 *  -2.48500    1.000000    
     70 Cl    s    0.504350 *  0.004350 *  0.245650 *  -2.48500    1.000000    
     71 Cl    s    0.745650 *  0.245650 *  0.245650 *  -2.48500    1.000000    
     72 Cl    s    0.995650 *  0.495650 *  0.754350 *  -2.48500    1.000000    
     73 Cl    s    0.254350 *  0.495650 *  0.495650 *  -2.48500    1.000000    
     74 Cl    s    0.745650 *  0.004350 *  0.004350 *  -2.48500    1.000000    
     75 Cl    s    0.245650 *  0.504350 *  0.004350 *  -2.48500    1.000000    
     76 Cl    s    0.995650 *  0.995650 *  0.254350 *  -2.48500    1.000000    
     77 Cl    s    0.504350 *  0.504350 *  0.745650 *  -2.48500    1.000000    
     78 Cl    s    0.754350 *  0.995650 *  0.495650 *  -2.48500    1.000000    
     79 Cl    s    0.004350 *  0.245650 *  0.504350 *  -2.48500    1.000000    
     80 Cl    s    0.495650 *  0.754350 *  0.995650 *  -2.48500    1.000000    
     81 Cl    s    0.504350 *  0.245650 *  0.004350 *  -2.48500    1.000000    
     82 Cl    s    0.995650 *  0.754350 *  0.495650 *  -2.48500    1.000000    
     83 Cl    s    0.754350 *  0.254350 *  0.754350 *  -2.48500    1.000000    
     84 Cl    s    0.245650 *  0.745650 *  0.245650 *  -2.48500    1.000000    
     85 Cl    s    0.754350 *  0.754350 *  0.254350 *  -2.48500    1.000000    
     86 Cl    s    0.245650 *  0.245650 *  0.745650 *  -2.48500    1.000000    
--------------------------------------------------------------------------------



********************************************************************************
*  General input information                                                   *
********************************************************************************

  Species output for all configurations : 

--------------------------------------------------------------------------------
  Species    Type    Atomic    Atomic    Charge       Radii (Angs)     Library
                     Number     Mass       (e)     Cova   Ionic  VDW   Symbol
--------------------------------------------------------------------------------
    Li       Core        3       6.94   1.000000   0.680  0.000  1.800          
    Sc       Core       21      44.96   3.000000   1.440  0.000  2.150          
    Cl       Core       17      35.45   1.485000   0.990  0.000  1.650          
    Cl       Shell      17       0.00  -2.485000   0.990  0.000  1.650          
--------------------------------------------------------------------------------


  Lattice summation method               =    Ewald          (3-D)
                                         =    Parry          (2-D)
                                         =    Saunders et al (1-D)
  Accuracy factor for lattice sums       =   12.000


  Analytic derivatives to be used

  Time limit = Infinity

  Maximum range for interatomic potentials =    100000.000000 Angstroms

  General interatomic potentials :

--------------------------------------------------------------------------------
Atom  Types   Potential      Parameter       Value         Units   Cutoffs(Ang)
  1     2                                                            Min /  Max 
--------------------------------------------------------------------------------
Cl   c Cl   s Spring (c-s)  Spring k 2       36.070000    eV*Ang^-2 0.000  0.800
                            Spring k 4       0.0000000    eV*Ang^-4 
--------------------------------------------------------------------------------
Li   c Li   c Buckingham    Buckingham A     360.53000    eV        0.000 12.000
                            Buckingham rho  0.16100000    Ang       
                            Buckingham C     0.0000000    eV*Ang^6  
--------------------------------------------------------------------------------
Li   c Cl   s Buckingham    Buckingham A     421.04000    eV        0.000 12.000
                            Buckingham rho  0.33400000    Ang       
                            Buckingham C     0.0000000    eV*Ang^6  
--------------------------------------------------------------------------------
Sc   c Cl   s Buckingham    Buckingham A     2456.2200    eV        0.000 12.000
                            Buckingham rho  0.31470000    Ang       
                            Buckingham C     0.0000000    eV*Ang^6  
--------------------------------------------------------------------------------
Cl   s Cl   s Buckingham    Buckingham A     1227.2000    eV        0.000 12.000
                            Buckingham rho  0.32100000    Ang       
                            Buckingham C     14.530000    eV*Ang^6  
--------------------------------------------------------------------------------

********************************************************************************
*  Output for configuration   1                                                *
********************************************************************************


  Components of energy : 

--------------------------------------------------------------------------------
  Interatomic potentials     =          43.60961917 eV    
  Monopole - monopole (real) =        -210.63359499 eV    
  Monopole - monopole (recip)=        -187.01293127 eV    
  Monopole - monopole (total)=        -397.64652626 eV    
--------------------------------------------------------------------------------
  Total lattice energy       =        -354.03690709 eV    
--------------------------------------------------------------------------------
  Total lattice energy       =          -34159.1496 kJ/(mole unit cells)
--------------------------------------------------------------------------------


  Number of variables =      261

  Maximum number of calculations  =          1000
  Maximum Hessian update interval =            10
  Maximum step size               =   1.000000000
  Maximum parameter tolerance     =   0.000010000
  Maximum function  tolerance     =   0.000010000
  Maximum gradient  tolerance     =   0.001000000
  Maximum gradient  component     =   0.010000000

  Symmetry not applied to optimisation

  Cell parameters to be optimised using strains

  Newton-Raphson optimiser to be used

  BFGS hessian update to be used

  Lower half triangular hessian to be used

  Start of bulk optimisation :

  Cycle:      0 Energy:      -354.036907  Gnorm:      2.536546  CPU:    0.089
  ** Hessian calculated **
  Cycle:      1 Energy:      -377.660802  Gnorm:      0.368382  CPU:    0.155
  ** Hessian calculated **
  Cycle:      2 Energy:      -378.498164  Gnorm:      0.197565  CPU:    0.261
  Cycle:      3 Energy:      -378.882076  Gnorm:      0.185872  CPU:    0.321
  Cycle:      4 Energy:      -379.672430  Gnorm:      0.261004  CPU:    0.381
  Cycle:      5 Energy:      -380.447760  Gnorm:      0.178999  CPU:    0.440
  Cycle:      6 Energy:      -380.985617  Gnorm:      0.154746  CPU:    0.489
  Cycle:      7 Energy:      -381.223866  Gnorm:      0.097359  CPU:    0.539
  Cycle:      8 Energy:      -381.342442  Gnorm:      0.083152  CPU:    0.588
  Cycle:      9 Energy:      -381.427136  Gnorm:      0.075349  CPU:    0.650
  Cycle:     10 Energy:      -381.491182  Gnorm:      0.065437  CPU:    0.711
  Cycle:     11 Energy:      -381.545562  Gnorm:      0.060901  CPU:    0.773
  ** Hessian calculated **
  Cycle:     12 Energy:      -381.578398  Gnorm:      0.048242  CPU:    0.872
  Cycle:     13 Energy:      -381.614270  Gnorm:      0.048969  CPU:    0.932
  Cycle:     14 Energy:      -381.652145  Gnorm:      0.054814  CPU:    0.991
  Cycle:     15 Energy:      -381.695465  Gnorm:      0.057657  CPU:    1.051
  Cycle:     16 Energy:      -381.736854  Gnorm:      0.045647  CPU:    1.111
  Cycle:     17 Energy:      -381.784224  Gnorm:      0.051767  CPU:    1.170
  Cycle:     18 Energy:      -381.811664  Gnorm:      0.036688  CPU:    1.221
  Cycle:     19 Energy:      -381.832100  Gnorm:      0.041440  CPU:    1.281
  Cycle:     20 Energy:      -381.855653  Gnorm:      0.039679  CPU:    1.341
  Cycle:     21 Energy:      -381.883634  Gnorm:      0.049536  CPU:    1.401
  ** Hessian calculated **
  Cycle:     22 Energy:      -381.950097  Gnorm:      0.045327  CPU:    1.521
  Cycle:     23 Energy:      -382.024759  Gnorm:      0.016036  CPU:    1.592
  Cycle:     24 Energy:      -382.039277  Gnorm:      0.006845  CPU:    1.641
  Cycle:     25 Energy:      -382.040712  Gnorm:      0.002542  CPU:    1.700
  Cycle:     26 Energy:      -382.040966  Gnorm:      0.000948  CPU:    1.749
  Cycle:     27 Energy:      -382.041020  Gnorm:      0.000415  CPU:    1.797


  **** Optimisation achieved ****


  Final energy =    -382.04102475 eV
  Final Gnorm  =       0.00011211

  Components of energy : 

--------------------------------------------------------------------------------
  Interatomic potentials     =          72.54061922 eV    
  Monopole - monopole (real) =         194.19458300 eV    
  Monopole - monopole (recip)=        -648.77622698 eV    
  Monopole - monopole (total)=        -454.58164397 eV    
--------------------------------------------------------------------------------
  Total lattice energy       =        -382.04102475 eV    
--------------------------------------------------------------------------------
  Total lattice energy       =          -36861.1189 kJ/(mole unit cells)
--------------------------------------------------------------------------------

  Final fractional coordinates of atoms :

--------------------------------------------------------------------------------
   No.  Atomic        x           y          z          Radius
        Label       (Frac)      (Frac)     (Frac)       (Angs) 
--------------------------------------------------------------------------------
     1  Li    c     0.375000    0.375000    0.875000    0.000000
     2  Li    c     0.514513    0.756612    0.237653    0.000000
     3  Li    c     0.251922    0.730785    0.503289    0.000000
     4  Li    c     0.868872    0.376428    0.336534    0.000000
     5  Li    c     0.616211    0.131456    0.585346    0.000000
     6  Li    c     0.775269    0.776113    0.980763    0.000000
     7  Li    c     0.500844    0.499187    0.473280    0.000000
     8  Li    c     0.499448    0.754270    0.714792    0.000000
     9  Li    c     0.221185    0.767691    0.948906    0.000000
    10  Li    c     0.281414    0.243548    0.466036    0.000000
    11  Li    c     0.765082    0.259481    0.008409    0.000000
    12  Li    c     0.512616    0.254567    0.241829    0.000000
    13  Li    c     0.997522    0.772701    0.219574    0.000000
    14  Li    c     0.739242    0.753015    0.460926    0.000000
    15  Li    c     0.268204    0.988760    0.727750    0.000000
    16  Li    c     0.758021    0.012786    0.225068    0.000000
    17  Li    c     0.998404    0.516748    0.991511    0.000000
    18  Sc    c     0.254948    0.501208    0.230287    0.000000
    19  Sc    c     0.751353    0.507701    0.724173    0.000000
    20  Sc    c     0.010841    0.257817    0.735058    0.000000
    21  Sc    c     0.505173    0.009467    0.976437    0.000000
    22  Sc    c     0.000403    0.000739    0.478755    0.000000
    23  Cl    c     0.267560    0.273477    0.235849    0.000000
    24  Cl    c     0.751320    0.508535    0.490854    0.000000
    25  Cl    c     0.508851    0.004990    0.739077    0.000000
    26  Cl    c     0.999533    0.738062    0.997518    0.000000
    27  Cl    c     0.272721    0.996395    0.959530    0.000000
    28  Cl    c     0.744452    0.735341    0.722647    0.000000
    29  Cl    c     0.501117    0.266602    0.471393    0.000000
    30  Cl    c     0.018172    0.508591    0.228555    0.000000
    31  Cl    c     0.507329    0.731070    0.477366    0.000000
    32  Cl    c     0.763015    0.503389    0.955465    0.000000
    33  Cl    c     0.994143    0.025783    0.720196    0.000000
    34  Cl    c     0.996058    0.273475    0.962743    0.000000
    35  Cl    c     0.491166    0.510433    0.228212    0.000000
    36  Cl    c     0.233204    0.008977    0.496134    0.000000
    37  Cl    c     0.275342    0.766244    0.724155    0.000000
    38  Cl    c     0.507455    0.006922    0.210457    0.000000
    39  Cl    c     0.742808    0.245970    0.226553    0.000000
    40  Cl    c     0.993082    0.489988    0.712211    0.000000
    41  Cl    c     0.255601    0.498696    0.466366    0.000000
    42  Cl    c     0.742251    0.016572    0.977828    0.000000
    43  Cl    c     0.245494    0.516781    0.994585    0.000000
    44  Cl    c     0.995760    0.011232    0.249096    0.000000
    45  Cl    c     0.517981    0.494191    0.723356    0.000000
    46  Cl    c     0.765638    0.996685    0.483635    0.000000
    47  Cl    c     0.007671    0.241210    0.493939    0.000000
    48  Cl    c     0.518964    0.778459    0.976353    0.000000
    49  Cl    c     0.517782    0.240776    0.981692    0.000000
    50  Cl    c     0.001440    0.772504    0.475347    0.000000
    51  Cl    c     0.767703    0.269018    0.728664    0.000000
    52  Cl    c     0.254561    0.732458    0.237720    0.000000
    53  Cl    c     0.752015    0.779112    0.230280    0.000000
    54  Cl    c     0.242008    0.255514    0.717894    0.000000
    55  Cl    s     0.270961    0.288744    0.240679    0.000000
    56  Cl    s     0.750734    0.508473    0.502311    0.000000
    57  Cl    s     0.507557    0.006038    0.747928    0.000000
    58  Cl    s     0.999604    0.734861    0.001201    0.000000
    59  Cl    s     0.287548    0.992629    0.954902    0.000000
    60  Cl    s     0.741325    0.720108    0.722614    0.000000
    61  Cl    s     0.499303    0.265153    0.470667    0.000000
    62  Cl    s     0.027690    0.506512    0.227525    0.000000
    63  Cl    s     0.509086    0.728210    0.477491    0.000000
    64  Cl    s     0.766884    0.502357    0.940883    0.000000
    65  Cl    s     0.997821    0.039268    0.707975    0.000000
    66  Cl    s     0.992000    0.276071    0.945990    0.000000
    67  Cl    s     0.477351    0.510313    0.232141    0.000000
    68  Cl    s     0.218999    0.010459    0.499608    0.000000
    69  Cl    s     0.279118    0.770302    0.723523    0.000000
    70  Cl    s     0.511034    0.007235    0.196661    0.000000
    71  Cl    s     0.743165    0.247097    0.224551    0.000000
    72  Cl    s     0.980768    0.476459    0.716304    0.000000
    73  Cl    s     0.259312    0.500329    0.453130    0.000000
    74  Cl    s     0.728927    0.015966    0.981459    0.000000
    75  Cl    s     0.245566    0.514675    0.004699    0.000000
    76  Cl    s     0.991336    0.006553    0.265415    0.000000
    77  Cl    s     0.530377    0.494795    0.723462    0.000000
    78  Cl    s     0.776558    0.997762    0.483337    0.000000
    79  Cl    s     0.007111    0.232150    0.504007    0.000000
    80  Cl    s     0.519711    0.792088    0.976363    0.000000
    81  Cl    s     0.516508    0.230559    0.981031    0.000000
    82  Cl    s     0.001741    0.787571    0.472732    0.000000
    83  Cl    s     0.777613    0.278818    0.727984    0.000000
    84  Cl    s     0.254477    0.718855    0.238123    0.000000
    85  Cl    s     0.751556    0.781950    0.231722    0.000000
    86  Cl    s     0.228455    0.255824    0.719236    0.000000
--------------------------------------------------------------------------------

  Final Cartesian lattice vectors (Angstroms) :

       10.529433   -0.061700    0.101892
       -0.060143   10.743968    0.028038
        0.101066    0.029637   10.583341


  Final cell parameters and derivatives :

--------------------------------------------------------------------------------
       a           10.530107 Angstrom     dE/de1(xx)     0.000552 eV/strain
       b           10.744173 Angstrom     dE/de2(yy)     0.001701 eV/strain
       c           10.583865 Angstrom     dE/de3(zz)    -0.001212 eV/strain
       alpha       89.693116 Degrees      dE/de4(yz)     0.000179 eV/strain
       beta        88.899410 Degrees      dE/de5(xz)     0.000905 eV/strain
       gamma       90.654982 Degrees      dE/de6(xy)    -0.000708 eV/strain
--------------------------------------------------------------------------------

  Primitive cell volume =          1197.112035 Angs**3

  Density of cell =      2.049060 g/cm**3

  Non-primitive cell volume =          1197.112035 Angs**3


  Final internal derivatives :

--------------------------------------------------------------------------------
   No.  Atomic          a             b             c           Radius
        Label          (eV)          (eV)          (eV)        (eV/Angs)
--------------------------------------------------------------------------------
      1 Li    c       0.000000      0.000000      0.000000      0.000000
      2 Li    c       0.000585     -0.000930     -0.000622      0.000000
      3 Li    c      -0.001396     -0.000601      0.000709      0.000000
      4 Li    c      -0.001199      0.002202      0.001006      0.000000
      5 Li    c      -0.000130     -0.000542     -0.000955      0.000000
      6 Li    c      -0.001459     -0.001432     -0.002887      0.000000
      7 Li    c       0.000414     -0.001362      0.000024      0.000000
      8 Li    c      -0.001456      0.000437     -0.000481      0.000000
      9 Li    c      -0.000975     -0.000493     -0.000717      0.000000
     10 Li    c      -0.000180      0.000175      0.000100      0.000000
     11 Li    c       0.000501     -0.000691      0.000500      0.000000
     12 Li    c       0.000381     -0.001229      0.000183      0.000000
     13 Li    c       0.000598      0.001310      0.000604      0.000000
     14 Li    c       0.000519      0.000471      0.000137      0.000000
     15 Li    c       0.000595     -0.000449     -0.000086      0.000000
     16 Li    c      -0.000287      0.007680      0.000314      0.000000
     17 Li    c       0.000147     -0.001037      0.002430      0.000000
     18 Sc    c      -0.000427     -0.000414      0.000280      0.000000
     19 Sc    c       0.000221      0.000004     -0.002396      0.000000
     20 Sc    c       0.000398     -0.001065     -0.000889      0.000000
     21 Sc    c       0.000457      0.000877      0.000259      0.000000
     22 Sc    c      -0.000587     -0.000083      0.001393      0.000000
     23 Cl    c       0.000677      0.000426      0.000748      0.000000
     24 Cl    c       0.001391     -0.002295     -0.003085      0.000000
     25 Cl    c      -0.000255      0.000175     -0.002120      0.000000
     26 Cl    c       0.005008     -0.001258      0.001744      0.000000
     27 Cl    c      -0.000305      0.001967     -0.000863      0.000000
     28 Cl    c       0.005214      0.004043      0.001668      0.000000
     29 Cl    c       0.000800     -0.001541      0.000424      0.000000
     30 Cl    c      -0.000202     -0.003211     -0.000606      0.000000
     31 Cl    c       0.002986     -0.000180      0.002305      0.000000
     32 Cl    c       0.000983      0.001071      0.001801      0.000000
     33 Cl    c      -0.002804     -0.001621      0.000292      0.000000
     34 Cl    c      -0.000199     -0.000253      0.000723      0.000000
     35 Cl    c       0.000097      0.002231      0.001022      0.000000
     36 Cl    c      -0.001355      0.000790      0.000839      0.000000
     37 Cl    c      -0.000505      0.000223     -0.002849      0.000000
     38 Cl    c       0.000155      0.000353      0.001912      0.000000
     39 Cl    c       0.000112     -0.002722     -0.000741      0.000000
     40 Cl    c       0.000080     -0.001207     -0.003401      0.000000
     41 Cl    c       0.000639      0.000022     -0.000373      0.000000
     42 Cl    c      -0.000089      0.005054     -0.002044      0.000000
     43 Cl    c      -0.000353     -0.000406      0.001689      0.000000
     44 Cl    c      -0.000373     -0.001126     -0.000196      0.000000
     45 Cl    c      -0.001159     -0.001581     -0.002165      0.000000
     46 Cl    c      -0.000941     -0.000530      0.002065      0.000000
     47 Cl    c       0.001878     -0.001185      0.002515      0.000000
     48 Cl    c      -0.005047      0.002094      0.000782      0.000000
     49 Cl    c      -0.000128     -0.000137      0.000240      0.000000
     50 Cl    c       0.001045     -0.000209     -0.000314      0.000000
     51 Cl    c       0.001155     -0.000004      0.000905      0.000000
     52 Cl    c      -0.000477     -0.001493      0.002206      0.000000
     53 Cl    c      -0.002285     -0.008809     -0.003125      0.000000
     54 Cl    c      -0.002945     -0.001517     -0.001597      0.000000
     55 Cl    s      -0.000400     -0.000139     -0.001254      0.000000
     56 Cl    s      -0.001693      0.000692      0.003574      0.000000
     57 Cl    s      -0.000287     -0.000756      0.003885      0.000000
     58 Cl    s      -0.003565      0.001156     -0.000768      0.000000
     59 Cl    s       0.000827     -0.002531      0.000570      0.000000
     60 Cl    s      -0.004247     -0.004673      0.003400      0.000000
     61 Cl    s      -0.001024      0.001410     -0.000722      0.000000
     62 Cl    s       0.001366      0.002611     -0.000021      0.000000
     63 Cl    s      -0.001648      0.001623     -0.001306      0.000000
     64 Cl    s      -0.001333      0.001805     -0.003272      0.000000
     65 Cl    s       0.002510      0.002298     -0.000245      0.000000
     66 Cl    s       0.000553      0.000915     -0.001711      0.000000
     67 Cl    s      -0.001428     -0.001049     -0.001234      0.000000
     68 Cl    s       0.001602     -0.000174     -0.001528      0.000000
     69 Cl    s       0.000533     -0.000345      0.003113      0.000000
     70 Cl    s      -0.000296     -0.001288     -0.003125      0.000000
     71 Cl    s      -0.000586      0.001224      0.000645      0.000000
     72 Cl    s      -0.000281      0.001131      0.003123      0.000000
     73 Cl    s      -0.000402      0.000050     -0.000362      0.000000
     74 Cl    s      -0.001725     -0.004724      0.002122      0.000000
     75 Cl    s       0.000148      0.000223     -0.002447      0.000000
     76 Cl    s       0.000701     -0.000028     -0.000789      0.000000
     77 Cl    s       0.001287      0.000711      0.003088      0.000000
     78 Cl    s       0.001453      0.000708     -0.001458      0.000000
     79 Cl    s      -0.002006      0.001286     -0.001544      0.000000
     80 Cl    s       0.005716      0.000121     -0.002282      0.000000
     81 Cl    s       0.000338     -0.000109     -0.000668      0.000000
     82 Cl    s      -0.000813     -0.000080     -0.000498      0.000000
     83 Cl    s      -0.001106      0.000843     -0.000808      0.000000
     84 Cl    s       0.000500      0.001164     -0.001317      0.000000
     85 Cl    s       0.001955      0.003145      0.002299      0.000000
     86 Cl    s       0.002266      0.001383      0.000978      0.000000
--------------------------------------------------------------------------------
  Maximum abs         0.005716      0.008809      0.003885      0.000000
--------------------------------------------------------------------------------

  Comparison of initial and final structures : 

--------------------------------------------------------------------------------
  Parameter   Initial value   Final value   Difference    Units      Percent
--------------------------------------------------------------------------------
    Volume      1126.065003   1197.112035    71.047032    Angs**3      6.31
    a             10.403700     10.530107     0.126407    Angstroms    1.22
    b             10.403700     10.744173     0.340473    Angstroms    3.27
    c             10.403700     10.583865     0.180165    Angstroms    1.73
    alpha         90.000000     89.693116    -0.306884    Degrees     -0.34
    beta          90.000000     88.899410    -1.100590    Degrees     -1.22
    gamma         90.000000     90.654982     0.654982    Degrees      0.73
      1 x          0.375000      0.375000     0.000000    Fractional   0.00
      1 y          0.375000      0.375000     0.000000    Fractional   0.00
      1 z          0.875000      0.875000     0.000000    Fractional   0.00
      2 x          0.500000      0.514513     0.014513    Fractional   2.90
      2 y          0.750000      0.756612     0.006612    Fractional   0.88
      2 z          0.250000      0.237653     0.012347    Fractional   4.94
      3 x          0.250000      0.251922     0.001922    Fractional   0.77
      3 y          0.750000      0.730785     0.019215    Fractional   2.56
      3 z          0.500000      0.503289     0.003289    Fractional   0.66
      4 x          0.750000      0.868872     0.118872    Fractional  15.85
      4 y          0.500000      0.376428     0.123572    Fractional  24.71
      4 z          0.250000      0.336534     0.086534    Fractional  34.61
      5 x          0.500000      0.616211     0.116211    Fractional  23.24
      5 y          0.000000      0.131456     0.131456    Fractional   0.00
      5 z          0.500000      0.585346     0.085346    Fractional  17.07
      6 x          0.875000      0.775269     0.099731    Fractional  11.40
      6 y          0.875000      0.776113     0.098887    Fractional  11.30
      6 z          0.114000      0.980763     0.133237    Fractional 116.87
      7 x          0.500000      0.500844     0.000844    Fractional   0.17
      7 y          0.500000      0.499187     0.000813    Fractional   0.16
      7 z          0.500000      0.473280     0.026720    Fractional   5.34
      8 x          0.500000      0.499448     0.000552    Fractional   0.11
      8 y          0.750000      0.754270     0.004270    Fractional   0.57
      8 z          0.750000      0.714792     0.035208    Fractional   4.69
      9 x          0.250000      0.221185     0.028815    Fractional  11.53
      9 y          0.750000      0.767691     0.017691    Fractional   2.36
      9 z          0.000000      0.948906     0.948906    Fractional   0.00
     10 x          0.250000      0.281414     0.031414    Fractional  12.57
     10 y          0.250000      0.243548     0.006452    Fractional   2.58
     10 z          0.500000      0.466036     0.033964    Fractional   6.79
     11 x          0.750000      0.765082     0.015082    Fractional   2.01
     11 y          0.250000      0.259481     0.009481    Fractional   3.79
     11 z          0.000000      0.008409     0.008409    Fractional   0.00
     12 x          0.500000      0.512616     0.012616    Fractional   2.52
     12 y          0.250000      0.254567     0.004567    Fractional   1.83
     12 z          0.250000      0.241829     0.008171    Fractional   3.27
     13 x          0.000000      0.997522     0.997522    Fractional   0.00
     13 y          0.750000      0.772701     0.022701    Fractional   3.03
     13 z          0.250000      0.219574     0.030426    Fractional  12.17
     14 x          0.750000      0.739242     0.010758    Fractional   1.43
     14 y          0.750000      0.753015     0.003015    Fractional   0.40
     14 z          0.500000      0.460926     0.039074    Fractional   7.81
     15 x          0.250000      0.268204     0.018204    Fractional   7.28
     15 y          0.000000      0.988760     0.988760    Fractional   0.00
     15 z          0.750000      0.727750     0.022250    Fractional   2.97
     16 x          0.750000      0.758021     0.008021    Fractional   1.07
     16 y          0.000000      0.012786     0.012786    Fractional   0.00
     16 z          0.250000      0.225068     0.024932    Fractional   9.97
     17 x          0.000000      0.998404     0.998404    Fractional   0.00
     17 y          0.500000      0.516748     0.016748    Fractional   3.35
     17 z          0.000000      0.991511     0.991511    Fractional   0.00
     18 x          0.250000      0.254948     0.004948    Fractional   1.98
     18 y          0.500000      0.501208     0.001208    Fractional   0.24
     18 z          0.250000      0.230287     0.019713    Fractional   7.89
     19 x          0.750000      0.751353     0.001353    Fractional   0.18
     19 y          0.500000      0.507701     0.007701    Fractional   1.54
     19 z          0.750000      0.724173     0.025827    Fractional   3.44
     20 x          0.000000      0.010841     0.010841    Fractional   0.00
     20 y          0.250000      0.257817     0.007817    Fractional   3.13
     20 z          0.750000      0.735058     0.014942    Fractional   1.99
     21 x          0.500000      0.505173     0.005173    Fractional   1.03
     21 y          0.000000      0.009467     0.009467    Fractional   0.00
     21 z          0.000000      0.976437     0.976437    Fractional   0.00
     22 x          0.000000      0.000403     0.000403    Fractional   0.00
     22 y          0.000000      0.000739     0.000739    Fractional   0.00
     22 z          0.500000      0.478755     0.021245    Fractional   4.25
     23 x          0.254350      0.267560     0.013210    Fractional   5.19
     23 y          0.254350      0.273477     0.019127    Fractional   7.52
     23 z          0.254350      0.235849     0.018501    Fractional   7.27
     24 x          0.745650      0.751320     0.005670    Fractional   0.76
     24 y          0.504350      0.508535     0.004185    Fractional   0.83
     24 z          0.504350      0.490854     0.013496    Fractional   2.68
     25 x          0.495650      0.508851     0.013201    Fractional   2.66
     25 y          0.995650      0.004990     0.009340    Fractional   0.94
     25 z          0.754350      0.739077     0.015273    Fractional   2.02
     26 x          0.004350      0.999533     0.004817    Fractional   0.48
     26 y          0.745650      0.738062     0.007588    Fractional   1.02
     26 z          0.004350      0.997518     0.006832    Fractional   0.68
     27 x          0.254350      0.272721     0.018371    Fractional   7.22
     27 y          0.995650      0.996395     0.000745    Fractional   0.07
     27 z          0.995650      0.959530     0.036120    Fractional   3.63
     28 x          0.745650      0.744452     0.001198    Fractional   0.16
     28 y          0.745650      0.735341     0.010309    Fractional   1.38
     28 z          0.745650      0.722647     0.023003    Fractional   3.08
     29 x          0.495650      0.501117     0.005467    Fractional   1.10
     29 y          0.254350      0.266602     0.012252    Fractional   4.82
     29 z          0.495650      0.471393     0.024257    Fractional   4.89
     30 x          0.004350      0.018172     0.013822    Fractional 317.76
     30 y          0.504350      0.508591     0.004241    Fractional   0.84
     30 z          0.245650      0.228555     0.017095    Fractional   6.96
     31 x          0.504350      0.507329     0.002979    Fractional   0.59
     31 y          0.745650      0.731070     0.014580    Fractional   1.96
     31 z          0.504350      0.477366     0.026984    Fractional   5.35
     32 x          0.754350      0.763015     0.008665    Fractional   1.15
     32 y          0.495650      0.503389     0.007739    Fractional   1.56
     32 z          0.995650      0.955465     0.040185    Fractional   4.04
     33 x          0.004350      0.994143     0.010207    Fractional   1.02
     33 y          0.004350      0.025783     0.021433    Fractional 492.71
     33 z          0.745650      0.720196     0.025454    Fractional   3.41
     34 x          0.995650      0.996058     0.000408    Fractional   0.04
     34 y          0.254350      0.273475     0.019125    Fractional   7.52
     34 z          0.995650      0.962743     0.032907    Fractional   3.31
     35 x          0.495650      0.491166     0.004484    Fractional   0.90
     35 y          0.495650      0.510433     0.014783    Fractional   2.98
     35 z          0.254350      0.228212     0.026138    Fractional  10.28
     36 x          0.245650      0.233204     0.012446    Fractional   5.07
     36 y          0.004350      0.008977     0.004627    Fractional 106.38
     36 z          0.504350      0.496134     0.008216    Fractional   1.63
     37 x          0.254350      0.275342     0.020992    Fractional   8.25
     37 y          0.754350      0.766244     0.011894    Fractional   1.58
     37 z          0.754350      0.724155     0.030195    Fractional   4.00
     38 x          0.504350      0.507455     0.003105    Fractional   0.62
     38 y          0.004350      0.006922     0.002572    Fractional  59.13
     38 z          0.245650      0.210457     0.035193    Fractional  14.33
     39 x          0.745650      0.742808     0.002842    Fractional   0.38
     39 y          0.245650      0.245970     0.000320    Fractional   0.13
     39 z          0.245650      0.226553     0.019097    Fractional   7.77
     40 x          0.995650      0.993082     0.002568    Fractional   0.26
     40 y          0.495650      0.489988     0.005662    Fractional   1.14
     40 z          0.754350      0.712211     0.042139    Fractional   5.59
     41 x          0.254350      0.255601     0.001251    Fractional   0.49
     41 y          0.495650      0.498696     0.003046    Fractional   0.61
     41 z          0.495650      0.466366     0.029284    Fractional   5.91
     42 x          0.745650      0.742251     0.003399    Fractional   0.46
     42 y          0.004350      0.016572     0.012222    Fractional 280.97
     42 z          0.004350      0.977828     0.026522    Fractional   2.64
     43 x          0.245650      0.245494     0.000156    Fractional   0.06
     43 y          0.504350      0.516781     0.012431    Fractional   2.46
     43 z          0.004350      0.994585     0.009765    Fractional   0.97
     44 x          0.995650      0.995760     0.000110    Fractional   0.01
     44 y          0.995650      0.011232     0.015582    Fractional   1.57
     44 z          0.254350      0.249096     0.005254    Fractional   2.07
     45 x          0.504350      0.517981     0.013631    Fractional   2.70
     45 y          0.504350      0.494191     0.010159    Fractional   2.01
     45 z          0.745650      0.723356     0.022294    Fractional   2.99
     46 x          0.754350      0.765638     0.011288    Fractional   1.50
     46 y          0.995650      0.996685     0.001035    Fractional   0.10
     46 z          0.495650      0.483635     0.012015    Fractional   2.42
     47 x          0.004350      0.007671     0.003321    Fractional  76.35
     47 y          0.245650      0.241210     0.004440    Fractional   1.81
     47 z          0.504350      0.493939     0.010411    Fractional   2.06
     48 x          0.495650      0.518964     0.023314    Fractional   4.70
     48 y          0.754350      0.778459     0.024109    Fractional   3.20
     48 z          0.995650      0.976353     0.019297    Fractional   1.94
     49 x          0.504350      0.517782     0.013432    Fractional   2.66
     49 y          0.245650      0.240776     0.004874    Fractional   1.98
     49 z          0.004350      0.981692     0.022658    Fractional   2.26
     50 x          0.995650      0.001440     0.005790    Fractional   0.58
     50 y          0.754350      0.772504     0.018154    Fractional   2.41
     50 z          0.495650      0.475347     0.020303    Fractional   4.10
     51 x          0.754350      0.767703     0.013353    Fractional   1.77
     51 y          0.254350      0.269018     0.014668    Fractional   5.77
     51 z          0.754350      0.728664     0.025686    Fractional   3.41
     52 x          0.245650      0.254561     0.008911    Fractional   3.63
     52 y          0.745650      0.732458     0.013192    Fractional   1.77
     52 z          0.245650      0.237720     0.007930    Fractional   3.23
     53 x          0.754350      0.752015     0.002335    Fractional   0.31
     53 y          0.754350      0.779112     0.024762    Fractional   3.28
     53 z          0.254350      0.230280     0.024070    Fractional   9.46
     54 x          0.245650      0.242008     0.003642    Fractional   1.48
     54 y          0.245650      0.255514     0.009864    Fractional   4.02
     54 z          0.745650      0.717894     0.027756    Fractional   3.72
     55 x          0.254350      0.270961     0.016611    Fractional   6.53
     55 y          0.254350      0.288744     0.034394    Fractional  13.52
     55 z          0.254350      0.240679     0.013671    Fractional   5.37
     56 x          0.745650      0.750734     0.005084    Fractional   0.68
     56 y          0.504350      0.508473     0.004123    Fractional   0.82
     56 z          0.504350      0.502311     0.002039    Fractional   0.40
     57 x          0.495650      0.507557     0.011907    Fractional   2.40
     57 y          0.995650      0.006038     0.010388    Fractional   1.04
     57 z          0.754350      0.747928     0.006422    Fractional   0.85
     58 x          0.004350      0.999604     0.004746    Fractional   0.47
     58 y          0.745650      0.734861     0.010789    Fractional   1.45
     58 z          0.004350      0.001201     0.003149    Fractional   0.31
     59 x          0.254350      0.287548     0.033198    Fractional  13.05
     59 y          0.995650      0.992629     0.003021    Fractional   0.30
     59 z          0.995650      0.954902     0.040748    Fractional   4.09
     60 x          0.745650      0.741325     0.004325    Fractional   0.58
     60 y          0.745650      0.720108     0.025542    Fractional   3.43
     60 z          0.745650      0.722614     0.023036    Fractional   3.09
     61 x          0.495650      0.499303     0.003653    Fractional   0.74
     61 y          0.254350      0.265153     0.010803    Fractional   4.25
     61 z          0.495650      0.470667     0.024983    Fractional   5.04
     62 x          0.004350      0.027690     0.023340    Fractional 536.55
     62 y          0.504350      0.506512     0.002162    Fractional   0.43
     62 z          0.245650      0.227525     0.018125    Fractional   7.38
     63 x          0.504350      0.509086     0.004736    Fractional   0.94
     63 y          0.745650      0.728210     0.017440    Fractional   2.34
     63 z          0.504350      0.477491     0.026859    Fractional   5.33
     64 x          0.754350      0.766884     0.012534    Fractional   1.66
     64 y          0.495650      0.502357     0.006707    Fractional   1.35
     64 z          0.995650      0.940883     0.054767    Fractional   5.50
     65 x          0.004350      0.997821     0.006529    Fractional   0.65
     65 y          0.004350      0.039268     0.034918    Fractional 802.72
     65 z          0.745650      0.707975     0.037675    Fractional   5.05
     66 x          0.995650      0.992000     0.003650    Fractional   0.37
     66 y          0.254350      0.276071     0.021721    Fractional   8.54
     66 z          0.995650      0.945990     0.049660    Fractional   4.99
     67 x          0.495650      0.477351     0.018299    Fractional   3.69
     67 y          0.495650      0.510313     0.014663    Fractional   2.96
     67 z          0.254350      0.232141     0.022209    Fractional   8.73
     68 x          0.245650      0.218999     0.026651    Fractional  10.85
     68 y          0.004350      0.010459     0.006109    Fractional 140.44
     68 z          0.504350      0.499608     0.004742    Fractional   0.94
     69 x          0.254350      0.279118     0.024768    Fractional   9.74
     69 y          0.754350      0.770302     0.015952    Fractional   2.11
     69 z          0.754350      0.723523     0.030827    Fractional   4.09
     70 x          0.504350      0.511034     0.006684    Fractional   1.33
     70 y          0.004350      0.007235     0.002885    Fractional  66.32
     70 z          0.245650      0.196661     0.048989    Fractional  19.94
     71 x          0.745650      0.743165     0.002485    Fractional   0.33
     71 y          0.245650      0.247097     0.001447    Fractional   0.59
     71 z          0.245650      0.224551     0.021099    Fractional   8.59
     72 x          0.995650      0.980768     0.014882    Fractional   1.49
     72 y          0.495650      0.476459     0.019191    Fractional   3.87
     72 z          0.754350      0.716304     0.038046    Fractional   5.04
     73 x          0.254350      0.259312     0.004962    Fractional   1.95
     73 y          0.495650      0.500329     0.004679    Fractional   0.94
     73 z          0.495650      0.453130     0.042520    Fractional   8.58
     74 x          0.745650      0.728927     0.016723    Fractional   2.24
     74 y          0.004350      0.015966     0.011616    Fractional 267.03
     74 z          0.004350      0.981459     0.022891    Fractional   2.28
     75 x          0.245650      0.245566     0.000084    Fractional   0.03
     75 y          0.504350      0.514675     0.010325    Fractional   2.05
     75 z          0.004350      0.004699     0.000349    Fractional   8.03
     76 x          0.995650      0.991336     0.004314    Fractional   0.43
     76 y          0.995650      0.006553     0.010903    Fractional   1.10
     76 z          0.254350      0.265415     0.011065    Fractional   4.35
     77 x          0.504350      0.530377     0.026027    Fractional   5.16
     77 y          0.504350      0.494795     0.009555    Fractional   1.89
     77 z          0.745650      0.723462     0.022188    Fractional   2.98
     78 x          0.754350      0.776558     0.022208    Fractional   2.94
     78 y          0.995650      0.997762     0.002112    Fractional   0.21
     78 z          0.495650      0.483337     0.012313    Fractional   2.48
     79 x          0.004350      0.007111     0.002761    Fractional  63.46
     79 y          0.245650      0.232150     0.013500    Fractional   5.50
     79 z          0.504350      0.504007     0.000343    Fractional   0.07
     80 x          0.495650      0.519711     0.024061    Fractional   4.85
     80 y          0.754350      0.792088     0.037738    Fractional   5.00
     80 z          0.995650      0.976363     0.019287    Fractional   1.94
     81 x          0.504350      0.516508     0.012158    Fractional   2.41
     81 y          0.245650      0.230559     0.015091    Fractional   6.14
     81 z          0.004350      0.981031     0.023319    Fractional   2.32
     82 x          0.995650      0.001741     0.006091    Fractional   0.61
     82 y          0.754350      0.787571     0.033221    Fractional   4.40
     82 z          0.495650      0.472732     0.022918    Fractional   4.62
     83 x          0.754350      0.777613     0.023263    Fractional   3.08
     83 y          0.254350      0.278818     0.024468    Fractional   9.62
     83 z          0.754350      0.727984     0.026366    Fractional   3.50
     84 x          0.245650      0.254477     0.008827    Fractional   3.59
     84 y          0.745650      0.718855     0.026795    Fractional   3.59
     84 z          0.245650      0.238123     0.007527    Fractional   3.06
     85 x          0.754350      0.751556     0.002794    Fractional   0.37
     85 y          0.754350      0.781950     0.027600    Fractional   3.66
     85 z          0.254350      0.231722     0.022628    Fractional   8.90
     86 x          0.245650      0.228455     0.017195    Fractional   7.00
     86 y          0.245650      0.255824     0.010174    Fractional   4.14
     86 z          0.745650      0.719236     0.026414    Fractional   3.54
--------------------------------------------------------------------------------


  Time to end of optimisation =       1.8491 seconds


  Peak dynamic memory used =       3.43 MB 


  Timing analysis for GULP :

--------------------------------------------------------------------------------
  Task / Subroutine                                          Time (Seconds)
--------------------------------------------------------------------------------
  Calculation of reciprocal space energy and derivatives          0.1178
  Calculation of real space energy and derivatives                1.6938
  Calculation and manipulation of Hessian matrix                  0.0011
  Calculation of matrix inversion                                 0.0164
  Symmetry generation of equivalent positions                     0.0001
--------------------------------------------------------------------------------
  Total CPU time                                                  1.8491
--------------------------------------------------------------------------------


  Dump file written as halospinel.grs


  Job Finished at 13:01.51 28th July       2022                               

