LAMMPS (7 Aug 2019)
  using 1 OpenMP thread(s) per MPI task

# Input written to comply with LAMMPS 2017-08-11 00:00:00

# Atomic Configuration
units           metal
boundary        p p p
box             tilt large
atom_style      charge
read_data       monoclinic_8x8x8.lmp
  triclinic box = (0 0 0) to (82.2424 82.5065 82.2968) with tilt (-0.0846491 -0.260726 -0.235925)
  4 by 8 by 5 MPI processor grid
  reading atoms ...
  27648 atoms
  read_data CPU = 0.049561 secs
group           lithium type 1
8704 atoms in group lithium
group           scandium type 2
2560 atoms in group scandium
group           chloride type 3
16384 atoms in group chloride
variable        T1 equal 600
variable        dt equal 0.001

# Potential Setup
pair_style      buck/coul/long 12.0
pair_coeff      * * 0.0 1.0 0.0
pair_coeff      1 1    360.530000  0.161000   0.000000 # Li Li
pair_coeff      1 3    421.040000  0.344000   0.000000 # Li Cl
pair_coeff      3 3   1227.200000  0.321000  14.530000 # Cl Cl
pair_coeff      2 3  12131.350000  0.250700   0.000000 # Sc Cl

kspace_style    pppm 1e-05

# General Setup
timestep        ${dt}
timestep        0.001

# Thermodynamic Information Output
thermo_style    custom step temp epair emol etotal press lx ly lz fmax cpu cpuremain
thermo          1000

# Intial Atom Velocity
velocity        all create ${T1} 332936 dist gaussian rot yes
velocity        all create 600 332936 dist gaussian rot yes

# Stage 0: npt_equilibriation
restart         0
fix             int all npt aniso 1.0 1.0 $(1000*dt) temp ${T1} ${T1} $(100*dt)
fix             int all npt aniso 1.0 1.0 1 temp ${T1} ${T1} $(100*dt)
fix             int all npt aniso 1.0 1.0 1 temp 600 ${T1} $(100*dt)
fix             int all npt aniso 1.0 1.0 1 temp 600 600 $(100*dt)
fix             int all npt aniso 1.0 1.0 1 temp 600 600 0.10000000000000000555
run             50000
PPPM initialization ...
  using 12-bit tables for long-range coulomb (../kspace.cpp:323)
  G vector (1/distance) = 0.266087
  grid = 72 75 72
  stencil order = 5
  estimated absolute RMS force accuracy = 0.000168694
  estimated relative force accuracy = 1.17151e-05
  using double precision MKL FFT
  3d grid and FFT values/proc = 8925 2880
Neighbor list info ...
  update every 1 steps, delay 10 steps, check yes
  max neighbors/atom: 2000, page size: 100000
  master list distance cutoff = 14
  ghost atom cutoff = 14
  binsize = 7, bins = 12 12 12
  1 neighbor lists, perpetual/occasional/extra = 1 0 0
  (1) pair buck/coul/long, perpetual
      attributes: half, newton on
      pair build: half/bin/newton/tri
      stencil: half/bin/3d/newton/tri
      bin: standard
Per MPI rank memory allocation (min/avg/max) = 4.024 | 4.083 | 4.145 Mbytes
Step Temp E_pair E_mol TotEng Press Lx Ly Lz Fmax CPU CPULeft 
       0          600   -186972.57            0   -184828.38    1315.1555    82.242362    82.506461    82.296819     2.700569            0            0 
    1000    590.66015   -191813.14            0   -189702.32    613.79396    87.721973      87.9749    88.326415     4.691879    5.4626849    267.67162 
    2000    601.10758   -191933.01            0   -189784.86    415.01831    87.959815    89.257268    88.925141    3.8484671    11.091259    266.19024 
    3000    604.05583   -192024.48            0   -189865.79   -340.08786    87.641155    89.919533     88.91775    4.3060022     16.99666    266.28102 
    4000    601.64712   -192052.94            0   -189902.86    48.960009    87.408652    90.591567    88.552407     4.717154    22.113007    254.29959 
    5000    599.27788   -192107.66            0   -189966.04    136.38942    87.276908    90.869579    88.559757    4.0781814      27.3381    246.04291 
    6000    602.06093   -192122.38            0   -189970.82    186.70752    87.147039    91.232832     88.31391    3.8929351    32.690629    239.73129 
    7000    599.82339   -192169.41            0   -190025.85    76.398704    87.063561    91.475056    88.054589    4.0895157    38.414342    235.97382 
    8000     602.2797   -192186.62            0   -190034.28    219.90549     86.97136    91.611783    87.872428    3.9306273    43.993626    230.96654 
    9000    599.05392   -192197.56            0   -190056.74   -252.43119     86.97922    91.679222    87.845398    5.3774366    49.396455     225.0283 
   10000    596.38752   -192216.87            0   -190085.59   -134.98186     87.02677    91.798224    87.752318    4.6423617    55.556124     222.2245 
   11000     603.1735   -192206.04            0   -190050.51   -140.45043    86.899381     91.95661    87.667797    4.7108348    60.897274    215.90852 
   12000    603.22023   -192228.68            0   -190072.98    228.59219    86.967112    91.983304    87.684065     4.767791     66.08047    209.25483 
   13000    598.97514   -192243.41            0   -190102.88   -151.91548    86.935084    92.017799    87.445013     5.196579    71.306216    202.94846 
   14000     600.2807   -192243.81            0   -190098.62   -300.77018    86.711357     92.11428    87.588424    4.3121278    77.063854     198.1642 
   15000    602.88302    -192227.4            0    -190072.9    175.45348    86.610567    92.060194    87.521163     5.034384    82.553076    192.62385 
   16000     599.5606   -192251.09            0   -190108.47    266.41407    86.546898    92.070623    87.446935    4.2902641    87.905624    186.79945 
   17000    601.28398    -192274.4            0   -190125.62   -131.12846    86.844429    91.935873    87.441994    4.2535672    94.104259    182.67298 
   18000    598.29654   -192265.35            0   -190127.24   -383.83473    86.815483    92.078994    87.508711    5.0503907    99.581681     177.0341 
   19000    597.08838   -192257.26            0   -190123.47    -207.1913    86.911198    91.996848    87.406794    4.2044603    104.69482    170.81786 
   20000    600.25983   -192284.38            0   -190139.26   -313.53589    86.720587     92.32876    87.322046    4.2082896    109.85579    164.78368 
   21000     607.2925   -192266.17            0   -190095.92   -79.432361    86.643057    92.238513    87.235438    4.5165659    115.27463    159.18878 
   22000    601.62082   -192286.23            0   -190136.24    265.70335     86.50274    92.249487    87.199625    4.0480954    120.79223    153.73557 
   23000    602.50725   -192280.74            0   -190127.59    10.008678     86.56093    92.262352    87.229725    4.3942697    126.02804    147.94596 
   24000    598.45795   -192293.31            0   -190154.62    253.81087    86.400266    92.292773      87.1701    4.6507431    131.81097    142.79522 
   25000    604.51033   -192270.25            0   -190109.94    148.69529    86.359648    92.270405    87.389477    4.1151309    137.67786    137.67786 
   26000    601.92549   -192295.44            0   -190144.37    55.780624    86.306298    92.253201    87.365167    3.8594699    142.77595    131.79319 
   27000    598.36226    -192280.4            0   -190142.06    146.59479    86.224606    92.385625    87.249475    5.0892373    147.88982    125.98021 
   28000    596.83192   -192292.62            0   -190159.75   -131.64545    86.363063    92.480461    87.137937    4.0296165    153.16516    120.34406 
   29000    601.66836   -192309.58            0   -190159.43   -361.48329    86.493666     92.17924    87.226741    4.3108378    158.94118    115.09534 
   30000    602.24693   -192311.13            0   -190158.91   -172.34662    86.404622    92.298877    87.165956    4.9801216    164.35605     109.5707 
   31000    600.93002    -192298.7            0   -190151.19    158.89727    86.405171    92.332939    87.083518    4.4558348    169.86357    104.10993 
   32000     602.4638    -192304.7            0    -190151.7    450.13992    86.321867    92.309565    87.086887      4.32498    175.88995    98.938095 
   33000     600.5247   -192322.63            0   -190176.56    481.76457    86.499741    92.282715    86.903616    4.3952975     181.0247    93.255151 
   34000    600.09684   -192305.94            0   -190161.41   -319.50604    86.334172    92.326695    87.074359    4.1328515    186.12031    87.586027 
   35000    596.64827   -192306.91            0    -190174.7   -108.40946    86.210221    92.521291     87.23335     5.332246    191.30371    81.987305 
   36000    598.74652   -192327.82            0    -190188.1   -51.486077     86.23579    92.457043    87.017239    4.4682685    196.93591    76.586188 
   37000    600.66619    -192313.1            0   -190166.53   -253.66486    86.294007     92.56967    86.869519    4.3894092    202.29666    71.077206 
   38000    600.92801   -192327.53            0   -190180.02   -316.67169    86.207215     92.82853    86.957222    4.0197227    207.56462    65.546723 
   39000    601.42331    -192343.5            0   -190194.22    265.29674    86.453847    92.526345    86.797274    4.2184248    213.51989    60.223559 
   40000     600.8226   -192334.23            0    -190187.1   -62.350036    86.438841    92.591996    86.759575     4.259916    219.16036    54.790092 
   41000    598.13784   -192315.84            0    -190178.3   -161.96435    86.330268    92.466302    86.790946    4.8539437    224.22338    49.219767 
   42000     600.1623   -192307.93            0   -190163.15    430.47011    86.275714    92.590642    86.768177    4.3926753    229.26636    43.669783 
   43000    598.03399   -192338.06            0   -190200.89   -180.70377    86.247693    92.718552    86.745091    4.4109676    234.60921    38.192196 
   44000    607.30541   -192338.35            0   -190168.05    255.93148    86.254347    92.615309      86.4828    3.9003078    240.25003    32.761368 
   45000    598.99348   -192322.34            0   -190181.75    327.89382    86.257494    92.537735    86.506668    4.7073613    245.57085     27.28565 
   46000    605.94499   -192330.81            0   -190165.37   -311.09233    86.321626    92.657016      86.5859    4.3164338    251.22489    21.845642 
   47000    600.91812   -192350.28            0    -190202.8   -107.96479    86.174684    92.749193    86.713904    4.5698085    257.15249    16.413989 
   48000    603.68873   -192338.56            0   -190181.19    213.85686    86.145578    92.619145    86.693247    4.7265386     262.2014    10.925058 
   49000    596.58991   -192321.59            0   -190189.58    185.31204     86.11877    92.695115    86.793984    4.8199564    267.32849    5.4556835 
   50000    597.50096   -192340.54            0   -190205.28   -44.650311    85.941995    92.810119     86.68505    3.7852555    272.42334            0 
Loop time of 272.423 on 160 procs for 50000 steps with 27648 atoms

Performance: 15.858 ns/day, 1.513 hours/ns, 183.538 timesteps/s
98.9% CPU use with 160 MPI tasks x 1 OpenMP threads

MPI task timing breakdown:
Section |  min time  |  avg time  |  max time  |%varavg| %total
---------------------------------------------------------------
Pair    | 50.269     | 54.569     | 59.47      |  23.4 | 20.03
Kspace  | 150.74     | 155.62     | 160.93     |  14.9 | 57.13
Neigh   | 2.378      | 2.5339     | 2.7627     |   4.9 |  0.93
Comm    | 28.586     | 31.339     | 33.579     |  19.4 | 11.50
Output  | 0.0032544  | 0.0032933  | 0.0043671  |   0.2 |  0.00
Modify  | 17.866     | 21.48      | 25.677     |  48.8 |  7.88
Other   |            | 6.874      |            |       |  2.52

Nlocal:    172.8 ave 191 max 158 min
Histogram: 4 7 17 37 36 31 18 6 2 2
Nghost:    3388.87 ave 3444 max 3336 min
Histogram: 4 8 9 30 32 32 23 17 2 3
Neighs:    39629.7 ave 44276 max 35499 min
Histogram: 3 8 15 28 39 33 19 10 4 1

Total # of neighbors = 6340744
Ave neighs/atom = 229.338
Neighbor list builds = 1813
Dangerous builds = 0

# Stage 1: nvt_equilibriation
unfix           int
restart         0
fix             int all nvt temp ${T1} ${T1} $(100*dt)
fix             int all nvt temp 600 ${T1} $(100*dt)
fix             int all nvt temp 600 600 $(100*dt)
fix             int all nvt temp 600 600 0.10000000000000000555
run             50000
PPPM initialization ...
  using 12-bit tables for long-range coulomb (../kspace.cpp:323)
  G vector (1/distance) = 0.264845
  grid = 75 80 75
  stencil order = 5
  estimated absolute RMS force accuracy = 0.000166504
  estimated relative force accuracy = 1.15631e-05
  using double precision MKL FFT
  3d grid and FFT values/proc = 9724 3000
Per MPI rank memory allocation (min/avg/max) = 4.105 | 4.226 | 4.521 Mbytes
Step Temp E_pair E_mol TotEng Press Lx Ly Lz Fmax CPU CPULeft 
   50000    597.50096   -192340.51            0   -190205.25   -44.072412    85.941995    92.810119     86.68505    3.7853761            0            0 
   51000    603.62218   -192337.15            0   -190180.01    363.25866    85.941995    92.810119     86.68505    3.9779325    5.3977091    264.48779 
   52000     602.8714   -192353.13            0   -190198.68   -23.929233    85.941995    92.810119     86.68505     4.545378    10.519471    252.46733 
   53000     596.0771   -192341.71            0   -190211.54   -195.04017    85.941995    92.810119     86.68505    4.4743837    15.516131    243.08607 
   54000    600.42154   -192340.94            0   -190195.24    57.800345    85.941995    92.810119     86.68505    4.6874659    21.016823    241.69348 
   55000    598.61089   -192338.01            0   -190198.78    128.72877    85.941995    92.810119     86.68505    5.0748714    26.293034    236.63732 
   56000    595.52199    -192343.6            0   -190215.41   -344.37938    85.941995    92.810119     86.68505    4.8357949    31.165137    228.54434 
   57000    602.64556   -192334.31            0   -190180.67   -194.83635    85.941995    92.810119     86.68505    4.3211656    35.930634    220.71676 
   58000    599.41746   -192353.66            0   -190211.54   -380.95289    85.941995    92.810119     86.68505    4.8014587    40.817584    214.29232 
   59000    600.55868   -192317.75            0   -190171.56   -211.27431    85.941995    92.810119     86.68505    5.2656778    46.072797    209.88719 
   60000    603.03447   -192332.58            0   -190177.55   -176.22466    85.941995    92.810119     86.68505    4.5869429    51.158369    204.63348 
   61000    598.65017   -192345.61            0   -190206.24   -198.16264    85.941995    92.810119     86.68505    4.0375559    56.017979     198.6092 
   62000    595.11034   -192318.17            0   -190191.45    76.753172    85.941995    92.810119     86.68505    4.0206608    61.472642    194.66337 
   63000     599.7321   -192311.74            0    -190168.5    117.81877    85.941995    92.810119     86.68505    4.5899341    66.690394    189.81112 
   64000    600.79759   -192312.49            0   -190165.45   -61.396174    85.941995    92.810119     86.68505    4.6451188     71.59858    184.11064 
   65000    604.49376   -192347.03            0   -190186.77   -444.58547    85.941995    92.810119     86.68505    4.7102959    76.412388    178.29557 
   66000    596.93922   -192340.43            0   -190207.18   -138.35398    85.941995    92.810119     86.68505    4.3754648    81.311317    172.78655 
   67000     601.9004   -192328.22            0   -190177.24   -233.66793    85.941995    92.810119     86.68505     4.280996    86.635559    168.17491 
   68000    593.52648    -192359.5            0   -190238.44    94.688459    85.941995    92.810119     86.68505    4.5894598    91.820678    163.23676 
   69000    599.69742   -192348.15            0   -190205.04   -132.55075    85.941995    92.810119     86.68505    4.1873745    96.719573    157.80562 
   70000    602.44308   -192349.71            0   -190196.79    288.95939    85.941995    92.810119     86.68505    4.4719462    102.21484    153.32225 
   71000     603.7357   -192346.51            0   -190188.97    150.32973    85.941995    92.810119     86.68505    4.1781063     107.3421    148.23433 
   72000    597.64999   -192338.93            0   -190203.14   -133.25982    85.941995    92.810119     86.68505    4.0929044    112.17748    142.77133 
   73000    593.97067   -192361.96            0   -190239.31   -374.98883    85.941995    92.810119     86.68505    4.8803433    117.03833    137.39282 
   74000    597.82357   -192344.61            0   -190208.19   -373.19641    85.941995    92.810119     86.68505    5.6557752    122.16355    132.34385 
   75000    598.99532   -192350.66            0   -190210.06    146.65546    85.941995    92.810119     86.68505     5.187128    127.39577    127.39578 
   76000    599.63948   -192361.95            0   -190219.04   -363.85936    85.941995    92.810119     86.68505    4.2687828    132.44725      122.259 
   77000    596.49274   -192338.08            0   -190206.42    33.965517    85.941995    92.810119     86.68505    4.3555446    137.52673     117.1524 
   78000    607.83621   -192350.53            0   -190178.34   -257.66493    85.941995    92.810119     86.68505    4.3476736     143.0802    112.42016 
   79000    599.05344   -192329.45            0   -190188.64    122.63019    85.941995    92.810119     86.68505    4.4136017    148.04904    107.20793 
   80000     600.7254   -192355.38            0   -190208.59   -261.65136    85.941995    92.810119     86.68505    3.7588538    152.83326    101.88884 
   81000     606.9886   -192347.05            0   -190177.88   -353.97472    85.941995    92.810119     86.68505    4.1508095    157.66059    96.630682 
   82000    600.03248   -192348.84            0   -190204.53   -414.46194    85.941995    92.810119     86.68505    4.7163085    162.82822    91.590875 
   83000    599.01595    -192337.8            0   -190197.12   -362.17733    85.941995    92.810119     86.68505    4.2628898    168.13734    86.616204 
   84000    602.45359   -192365.79            0   -190212.83   -278.12354    85.941995    92.810119     86.68505    4.5031897    173.21038    81.510767 
   85000    596.50843    -192345.3            0   -190213.59   -182.45079    85.941995    92.810119     86.68505    4.7488043    178.33631    76.429846 
   86000    600.02124   -192345.61            0   -190201.34   -188.33586    85.941995    92.810119     86.68505    4.3679764    183.81953    71.485374 
   87000      599.778   -192325.79            0   -190182.39   -205.11626    85.941995    92.810119     86.68505    4.3258735    188.79565    66.333607 
   88000    596.26533   -192337.73            0   -190206.88   -231.45487    85.941995    92.810119     86.68505     4.998853    193.75471    61.185699 
   89000    602.73203   -192385.16            0    -190231.2   -441.45764    85.941995    92.810119     86.68505    3.9746037    198.66896    56.034835 
   90000    601.57323   -192370.53            0   -190220.71   -3.8670639    85.941995    92.810119     86.68505    4.3549234    204.00283    51.000707 
   91000    598.65058   -192341.91            0   -190202.54   -280.86166    85.941995    92.810119     86.68505    4.4098038    209.12767    45.906073 
   92000    597.48772   -192344.37            0   -190209.16   -379.50549    85.941995    92.810119     86.68505      4.16882    214.16154    40.792675 
   93000    600.09581   -192377.91            0   -190233.37    -367.8932    85.941995    92.810119     86.68505    3.9415818    219.38369    35.713623 
   94000    594.97851   -192328.96            0   -190202.72   -48.149402    85.941995    92.810119     86.68505    4.9646782    224.79648    30.654065 
   95000    601.61272   -192341.11            0   -190191.15   -284.74492    85.941995    92.810119     86.68505    4.7019085    229.48243    25.498048 
   96000    597.71093   -192349.35            0   -190213.33   -540.02676    85.941995    92.810119     86.68505    4.4383488    234.30324    20.374195 
   97000    597.84895   -192335.87            0   -190199.37   -600.68463    85.941995    92.810119     86.68505    4.2241865    239.19397      15.2677 
   98000    601.81618   -192336.62            0   -190185.93   -621.10198    85.941995    92.810119     86.68505    4.1969021    244.64291    10.193454 
   99000    595.41985   -192345.18            0   -190217.35   -646.40562    85.941995    92.810119     86.68505    4.1272545    249.78258    5.0976038 
  100000    597.82171    -192358.6            0   -190222.19   -321.34464    85.941995    92.810119     86.68505    4.0486659    254.70724            0 
Loop time of 254.707 on 160 procs for 50000 steps with 27648 atoms

Performance: 16.961 ns/day, 1.415 hours/ns, 196.304 timesteps/s
98.9% CPU use with 160 MPI tasks x 1 OpenMP threads

MPI task timing breakdown:
Section |  min time  |  avg time  |  max time  |%varavg| %total
---------------------------------------------------------------
Pair    | 50.473     | 54.325     | 58.999     |  23.4 | 21.33
Kspace  | 146.63     | 151.46     | 155.27     |  14.2 | 59.46
Neigh   | 2.3354     | 2.4882     | 2.7214     |   4.5 |  0.98
Comm    | 36.811     | 38.667     | 40.222     |  10.5 | 15.18
Output  | 0.0032415  | 0.0032664  | 0.0040019  |   0.1 |  0.00
Modify  | 6.0774     | 7.0987     | 8.5663     |  22.5 |  2.79
Other   |            | 0.6642     |            |       |  0.26

Nlocal:    172.8 ave 191 max 157 min
Histogram: 3 3 23 35 24 38 17 12 3 2
Nghost:    3394.03 ave 3460 max 3328 min
Histogram: 2 4 14 26 33 40 24 10 6 1
Neighs:    39631 ave 44273 max 35048 min
Histogram: 3 3 18 26 35 28 22 15 8 2

Total # of neighbors = 6340967
Ave neighs/atom = 229.346
Neighbor list builds = 1785
Dangerous builds = 0

# Stage 2: main_nvt_simulation
unfix           int
compute         lithiummsd lithium msd com yes
compute         scandiummsd scandium msd com yes
compute         chloridemsd chloride msd com yes
fix             lithiummsdt lithium ave/time 1 1 1000 c_lithiummsd[4] file monoclinic_8x8x8_600_li.txt
fix             scandiummymsdt scandium ave/time 1 1 1000 c_scandiummsd[4] file monoclinic_8x8x8_600_sc.txt
fix             chloridemymsdt chloride ave/time 1 1 1000 c_chloridemsd[4] file monoclinic_8x8x8_600_cl.txt
dump            atom_info all custom 1000 monoclinic_8x8x8_600.lammpstrj element x y z q id type vx vy vz
dump_modify     atom_info append yes
dump_modify     atom_info sort id
dump_modify     atom_info element Li Sc Cl
restart         0
fix             int all nvt temp ${T1} ${T1} $(100*dt)
fix             int all nvt temp 600 ${T1} $(100*dt)
fix             int all nvt temp 600 600 $(100*dt)
fix             int all nvt temp 600 600 0.10000000000000000555
run             16000000
PPPM initialization ...
  using 12-bit tables for long-range coulomb (../kspace.cpp:323)
  G vector (1/distance) = 0.264845
  grid = 75 80 75
  stencil order = 5
  estimated absolute RMS force accuracy = 0.000166504
  estimated relative force accuracy = 1.15631e-05
  using double precision MKL FFT
  3d grid and FFT values/proc = 9724 3000
Per MPI rank memory allocation (min/avg/max) = 6.527 | 6.681 | 6.943 Mbytes
Step Temp E_pair E_mol TotEng Press Lx Ly Lz Fmax CPU CPULeft 
  100000    597.82171    -192358.6            0   -190222.19   -321.34464    85.941995    92.810119     86.68505    4.0486659            0            0 
  101000    597.93848   -192363.76            0   -190226.93   -418.81425    85.941995    92.810119     86.68505    4.7194069     5.243634      83892.9 
  102000    599.69059   -192343.78            0   -190200.69   -734.69889    85.941995    92.810119     86.68505    4.9860243    10.635194    85070.925 
  103000    600.42544   -192367.16            0   -190221.44   -727.99319    85.941995    92.810119     86.68505      4.59808    15.361178    81910.926 
  104000    596.55508      -192339            0   -190207.11    -455.9268    85.941995    92.810119     86.68505    4.2695838    20.162889    80631.397 
  105000    602.98126   -192339.69            0   -190184.84   -289.31693    85.941995    92.810119     86.68505    4.6761924    24.982083    79917.687 
  106000    602.68762   -192315.89            0   -190162.09   -495.93693    85.941995    92.810119     86.68505    4.7828178     30.20762    80523.448 
  107000    598.16779   -192344.46            0   -190206.81   -431.39876    85.941995    92.810119     86.68505    4.6135742    35.376445    80825.069 
  108000    600.05773   -192355.07            0   -190210.67   -533.94643    85.941995    92.810119     86.68505     4.670494    40.197544    80354.892 
  109000    594.96654   -192345.61            0   -190219.41   -483.84488    85.941995    92.810119     86.68505    3.9023421    45.438446    80734.023 
  110000    600.21131   -192324.19            0   -190179.24    -675.6345    85.941995    92.810119     86.68505    4.0790274     50.75827    81162.475 
  111000    600.51588   -192347.91            0   -190201.87    -746.8601    85.941995    92.810119     86.68505    4.5364535    55.499172    80670.571 
  112000     596.2552   -192344.83            0   -190214.02   -514.19909    85.941995    92.810119     86.68505    3.7091601    60.261751    80288.741 
  113000      601.034    -192353.4            0   -190205.51   -427.48034    85.941995    92.810119     86.68505     4.154865    65.079966    80033.341 
  114000    602.37563    -192329.1            0   -190176.41   -186.12277    85.941995    92.810119     86.68505    4.6227307    70.442389    80435.146 
  115000    601.01339   -192360.47            0   -190212.65   -422.84248    85.941995    92.810119     86.68505    4.9323522     75.57398    80536.672 
  116000    606.87495   -192351.57            0   -190182.81   -252.27288    85.941995    92.810119     86.68505    4.2291819    80.482598    80402.116 
  117000    602.30681   -192342.16            0   -190189.72   -196.69894    85.941995    92.810119     86.68505    4.6322759     85.81943     80685.41 
  118000    599.42046   -192342.99            0   -190200.87   -556.44863    85.941995    92.810119     86.68505    4.0731958    91.029864    80824.406 
  119000    601.74306   -192350.13            0    -190199.7   -215.16549    85.941995    92.810119     86.68505    3.8108055    95.819925    80594.644 
  120000    601.69514   -192344.32            0   -190194.06   -135.10322    85.941995    92.810119     86.68505    4.7871302     100.5954    80375.726 
  121000    604.09743    -192371.6            0   -190212.77   -275.99002    85.941995    92.810119     86.68505    4.4399404    105.51682    80288.255 
  122000     602.0685   -192346.46            0   -190194.87   -346.41974    85.941995    92.810119     86.68505    5.7433414    110.75039    80434.989 
  123000     596.9696   -192357.12            0   -190223.75   -379.73717    85.941995    92.810119     86.68505    3.8833378     115.8472    80473.511 
  124000    600.42666   -192337.07            0   -190191.35   -9.9310665    85.941995    92.810119     86.68505      4.79413    120.71831    80358.154 
  125000    598.64688   -192342.47            0   -190203.12   -298.55251    85.941995    92.810119     86.68505    5.5328386    126.04458    80542.488 
  126000    602.85572   -192366.39            0   -190211.99   -453.69001    85.941995    92.810119     86.68505    4.6637536    131.25517    80641.159 
  127000    603.30315   -192348.47            0   -190192.47    90.551092    85.941995    92.810119     86.68505    4.7298437    136.10877    80520.941 
  128000      598.057    -192366.6            0   -190229.35   -360.88555    85.941995    92.810119     86.68505    4.3074639    140.89964     80373.18 
  129000    602.58101   -192364.41            0      -190211   -476.12629    85.941995    92.810119     86.68505    4.2920072    145.83545    80315.105 
  130000     600.8118   -192350.63            0   -190203.54   -340.24645    85.941995    92.810119     86.68505    4.4937651    151.12412    80448.407 
  131000    597.29743   -192357.62            0   -190223.08   -214.57643    85.941995    92.810119     86.68505    5.3844017    156.22436    80475.705 
  132000    599.59587   -192347.94            0   -190205.19   -77.911712    85.941995    92.810119     86.68505    4.2761021    161.13451    80406.123 
  133000    591.53144   -192341.61            0   -190227.69   -901.65609    85.941995    92.810119     86.68505    3.9054641    166.56776    80593.559 
  134000    602.40646   -192344.15            0   -190191.36    -333.3511    85.941995    92.810119     86.68505    5.0010383    171.71626    80635.935 
  135000    593.67151   -192329.67            0   -190208.09   -264.09267    85.941995    92.810119     86.68505    4.0760909    176.47512    80497.868 
  136000    599.63339   -192349.56            0   -190206.68   -219.91988    85.941995    92.810119     86.68505    4.5172473    181.26825    80382.397 
  137000    597.74016   -192343.41            0    -190207.3   -363.61362    85.941995    92.810119     86.68505    4.2284665    186.20506    80334.904 
  138000     602.4177    -192353.6            0   -190200.77   -229.31089    85.941995    92.810119     86.68505    4.3238123    191.46496    80425.362 
  139000    598.99966   -192337.76            0   -190197.14   -758.92521    85.941995    92.810119     86.68505    4.4754753    196.63577    80474.452 
  140000    597.16666   -192338.06            0   -190203.99   -626.10343    85.941995    92.810119     86.68505    5.0477728    201.57735    80429.363 
  141000    595.36662   -192361.59            0   -190233.95   -437.96883    85.941995    92.810119     86.68505    3.9341945    207.04015    80589.115 
  142000    602.85958   -192340.29            0   -190185.88   -562.91842    85.941995    92.810119     86.68505    4.6039528     212.1258    80597.705 
  143000    602.04342    -192358.7            0    -190207.2   -179.03705    85.941995    92.810119     86.68505    4.6638451    216.88267    80483.646 
  144000    604.50266   -192344.02            0   -190183.74   -331.14244    85.941995    92.810119     86.68505    4.3966355    221.61746    80366.549 
  145000    600.14366   -192367.88            0   -190223.17    -632.9938    85.941995    92.810119     86.68505    4.1509314    226.48687    80302.177 
  146000    603.77218   -192347.94            0   -190190.27   -246.33894    85.941995    92.810119     86.68505    4.5431444    231.74869    80376.493 
  147000     601.4851   -192352.19            0   -190202.69   -615.50389    85.941995    92.810119     86.68505    4.4428149    236.84592    80391.552 
  148000    600.11124   -192350.65            0   -190206.06   -516.98764    85.941995    92.810119     86.68505    5.0381247    241.71451     80329.79 
  149000    605.87033   -192342.91            0   -190177.74   -375.33095    85.941995    92.810119     86.68505    4.4236869    247.16193    80458.776 
  150000    603.92557   -192373.82            0    -190215.6   -413.72811    85.941995    92.810119     86.68505    5.2271978    252.29529    80482.197 
  151000    605.12367   -192380.64            0   -190218.13   -554.58098    85.941995    92.810119     86.68505    4.3387171    257.04893    80385.754 
  152000    598.73816   -192343.03            0   -190203.35   -455.38867    85.941995    92.810119     86.68505    4.4543884    261.81533    80296.748 
  153000    600.53728    -192348.9            0   -190202.79   -878.81397    85.941995    92.810119     86.68505    4.0224969    266.87117    80298.012 
  154000    601.04149   -192358.92            0   -190211.01   -438.97099    85.941995    92.810119     86.68505     4.552549    272.06265    80339.092 
  155000    599.99325   -192348.63            0   -190204.46   -343.17966    85.941995    92.810119     86.68505     4.003691    277.18733    80359.128 
  156000    598.69482   -192381.92            0   -190242.39   -673.15675    85.941995    92.810119     86.68505    4.3053704    282.09396    80316.182 
  157000    599.62204   -192357.44            0    -190214.6    -448.8942    85.941995    92.810119     86.68505    4.7406795    287.57977    80436.567 
  158000    594.16257   -192339.24            0    -190215.9    -386.9215    85.941995    92.810119     86.68505    4.2043196    292.66689    80443.026 
  159000    598.87291   -192341.59            0   -190201.42   -106.26381    85.941995    92.810119     86.68505    4.8523314    297.48938    80377.597 
  160000    604.03948   -192356.08            0   -190197.45   -838.75453    85.941995    92.810119     86.68505    4.3776787    302.30035    80311.127 
  161000    599.88588   -192335.82            0   -190192.03   -412.36829    85.941995    92.810119     86.68505     4.044703    307.32111    80301.494 
  162000    599.83787   -192338.76            0   -190195.14   -453.72333    85.941995    92.810119     86.68505    5.0618316    312.43654    80316.347 
  163000     598.3894   -192334.31            0   -190195.88    -800.9761    85.941995    92.810119     86.68505    4.3077621    317.48093    80312.596 
  164000    598.29759   -192339.85            0   -190201.74   -678.65755    85.941995    92.810119     86.68505    3.9386803     322.3684    80269.731 
  165000    601.29908    -192350.9            0   -190202.07   -532.73691    85.941995    92.810119     86.68505    4.3518946    327.83167    80369.194 
  166000     598.2918   -192341.69            0    -190203.6   -607.43883    85.941995    92.810119     86.68505    4.1535774    332.76561    80337.686 
  167000    600.70087   -192331.21            0   -190184.51   -647.85773    85.941995    92.810119     86.68505    4.4463136    337.52022    80264.325 
  168000    601.39553   -192335.47            0   -190186.29   -576.11414    85.941995    92.810119     86.68505    4.8363255    342.32265    80204.184 
  169000    599.91573   -192357.34            0   -190213.45   -703.40774    85.941995    92.810119     86.68505    4.0945468    347.32209    80191.134 
  170000    605.83654   -192328.85            0    -190163.8   -656.31986    85.941995    92.810119     86.68505     4.439718     352.4685    80211.761 
  171000    595.97275   -192347.35            0   -190217.55    -521.8768    85.941995    92.810119     86.68505    4.0234738    357.55763    80218.811 
  172000    602.83353    -192357.3            0   -190202.98    -301.2316    85.941995    92.810119     86.68505    4.7734406    362.48652    80190.075 
  173000    598.91998   -192369.55            0   -190229.21   -687.90187    85.941995    92.810119     86.68505     4.220076    367.95948    80280.694 
  174000    603.19537   -192343.15            0   -190187.53   -198.22857    85.941995    92.810119     86.68505    4.7532054    372.97852    80271.027 
  175000    600.72317    -192372.1            0   -190225.32   -96.662054    85.941995    92.810119     86.68505    4.6565556    377.70472    80199.302 
  176000    602.04524   -192359.86            0   -190208.36   -277.61771    85.941995    92.810119     86.68505    5.3138828    382.44722    80132.758 
  177000     597.5015   -192358.45            0   -190223.19   -732.38252    85.941995    92.810119     86.68505    5.2147921    387.47409    80126.622 
  178000    599.34112    -192366.7            0   -190224.86    -752.8978    85.941995    92.810119     86.68505    4.5427164     392.6377     80148.43 
  179000     599.8423   -192362.86            0   -190219.23   -760.98006    85.941995    92.810119     86.68505    4.5612657    397.65095    80139.251 
  180000    596.29333   -192378.78            0   -190247.83   -742.90154    85.941995    92.810119     86.68505    4.0062833    402.66533    80130.401 
  181000    601.63682   -192351.69            0   -190201.65   -488.78405    85.941995    92.810119     86.68505    4.2688829    408.15191    80214.448 
  182000    600.05705   -192354.19            0    -190209.8   -813.40786    85.941995    92.810119     86.68505    4.6106581    413.05734    80183.496 
  183000    601.27723   -192363.62            0   -190214.87   -618.78693    85.941995    92.810119     86.68505    4.2712278    417.81523    80124.881 
  184000    597.14918   -192364.06            0   -190230.05   -996.57622    85.941995    92.810119     86.68505    4.4153257    422.65875    80083.769 
  185000    602.70463   -192356.36            0   -190202.51   -424.86537    85.941995    92.810119     86.68505    4.2816452    427.65766    80072.608 
  186000    597.02748   -192370.06            0   -190236.49   -690.52746    85.941995    92.810119     86.68505    4.8026138    432.84922    80097.238 
  187000    601.21434    -192345.1            0   -190196.57    -723.9811    85.941995    92.810119     86.68505    5.0758797    437.88751     80093.15 
  188000    602.59034   -192334.34            0   -190180.89   -440.48155    85.941995    92.810119     86.68505    4.0738893    442.91163    80086.477 
  189000    598.62565   -192348.63            0   -190209.35   -714.00391    85.941995    92.810119     86.68505    4.2053396    448.44546    80170.964 
  190000    600.55425   -192365.51            0   -190219.34   -532.26168    85.941995    92.810119     86.68505    4.5613232     453.3544    80142.983 
  191000    602.65933   -192356.02            0   -190202.32    -819.4021    85.941995    92.810119     86.68505    4.4035722    458.11297    80089.223 
  192000    605.49755   -192359.84            0      -190196   -674.86599    85.941995    92.810119     86.68505    4.1539566    462.94362     80048.99 
  193000    606.22756   -192337.01            0   -190170.56   -523.08441    85.941995    92.810119     86.68505    4.4032374    468.02498    80052.401 
  194000    603.38699    -192365.9            0   -190209.61   -430.08305    85.941995    92.810119     86.68505     3.991555    473.00973    80039.285 
  195000    600.83887   -192319.32            0   -190172.13   -500.12394    85.941995    92.810119     86.68505    4.8231406    478.05039    80035.699 
  196000    597.97795   -192333.58            0   -190196.61    -643.6352    85.941995    92.810119     86.68505    4.2493816     483.0437     80024.24 
  197000    596.31016   -192325.01            0   -190194.01   -791.03957    85.941995    92.810119     86.68505    4.5288296    488.57233    80100.679 
  198000     597.4953   -192328.91            0   -190193.67   -619.52622    85.941995    92.810119     86.68505    4.2271963    493.49323     80076.83 
  199000    596.42856   -192353.13            0    -190221.7   -459.07725    85.941995    92.810119     86.68505    4.6643099    498.31219    80036.991 
  200000    600.69053   -192350.08            0   -190203.42   -310.83604    85.941995    92.810119     86.68505    3.9460231    503.17621    80005.018 
  201000    596.61029    -192344.6            0   -190212.52   -704.60058    85.941995    92.810119     86.68505    4.9462239    508.37802    80026.754 
  202000     604.3507   -192351.93            0   -190192.19   -529.50789    85.941995    92.810119     86.68505    4.7378958     513.4252    80023.861 
  203000    599.75423   -192339.15            0   -190195.83   -848.52903    85.941995    92.810119     86.68505     4.442983    518.47324     80021.06 
  204000    595.70246   -192354.55            0   -190225.72   -456.22721    85.941995    92.810119     86.68505    4.6636288    523.47938     80011.81 
  205000    602.74201   -192356.21            0   -190202.22    -462.1754    85.941995    92.810119     86.68505    4.6731937    529.04036    80086.634 
  206000    596.15211   -192324.88            0   -190194.44   -351.02046    85.941995    92.810119     86.68505    4.4884869    533.83451     80044.96 
  207000    597.48614   -192365.85            0   -190230.64   -389.93914    85.941995    92.810119     86.68505    4.8472436    538.61367    80001.749 
  208000    600.63173   -192358.78            0   -190212.33   -245.50097    85.941995    92.810119     86.68505     4.659914    543.45545    79968.463 
  209000    598.59063   -192358.87            0   -190219.71   -568.02865    85.941995    92.810119     86.68505    4.5140096    548.68856    79992.752 
  210000    599.10929   -192349.87            0   -190208.86   -582.87376    85.941995    92.810119     86.68505    4.6653617    553.79788    79998.621 
  211000    602.45123   -192345.48            0   -190192.53   -544.59839    85.941995    92.810119     86.68505    4.1225771    558.72756    79978.578 
  212000    594.01952   -192338.06            0   -190215.24   -221.63762    85.941995    92.810119     86.68505    4.5544737    563.74387    79971.094 
  213000    606.04829   -192337.01            0    -190171.2   -564.06093    85.941995    92.810119     86.68505    4.1574072    569.23993    80031.104 
  214000    594.66711   -192338.34            0   -190213.21   -600.04742    85.941995    92.810119     86.68505    4.4350575     573.9203    79976.298 
  215000    599.27862   -192344.93            0   -190203.32   -550.75202    85.941995    92.810119     86.68505     4.180494    578.70919    79937.353 
  216000    595.86464   -192354.25            0   -190224.84   -933.27695    85.941995    92.810119     86.68505    4.3821133    583.48947    79897.817 
  217000    596.51253   -192363.37            0   -190231.64    -675.9614    85.941995    92.810119     86.68505     4.277498    588.66631    79912.709 
  218000    597.78135   -192344.17            0    -190207.9   -609.46108    85.941995    92.810119     86.68505    4.4899317    593.78011    79918.777 
  219000    601.07907   -192365.29            0   -190217.24   -440.03595    85.941995    92.810119     86.68505    4.6009563    598.84465    79918.083 
  220000    597.21936   -192350.41            0   -190216.15   -329.78059    85.941995    92.810119     86.68505    4.1081792    603.97327    79925.796 
  221000     602.5841   -192348.18            0   -190194.76   -491.12237    85.941995    92.810119     86.68505    4.9334838    609.43385     79976.86 
  222000    598.62593   -192346.84            0   -190207.55   -560.72144    85.941995    92.810119     86.68505    4.5883045    614.34097    79954.966 
  223000    603.64776   -192354.13            0    -190196.9   -624.73703    85.941995    92.810119     86.68505    4.3711251    619.12235    79917.118 
  224000    597.43688   -192359.88            0   -190224.85   -314.55327    85.941995    92.810119     86.68505    4.0160319    623.94803    79885.475 
  225000    600.45367   -192351.78            0   -190205.97   -742.16602    85.941995    92.810119     86.68505    4.1383463    629.24608    79914.253 
  226000    608.63702   -192369.46            0    -190194.4   -608.50425    85.941995    92.810119     86.68505    4.4401704    634.35378    79918.508 
  227000    596.38363   -192373.22            0   -190241.95   -354.34492    85.941995    92.810119     86.68505    4.2915815    639.39212    79913.946 
  228000    604.57478   -192346.99            0   -190186.45   -544.68748    85.941995    92.810119     86.68505    4.4680444    644.66194    79938.081 
  229000    599.55167    -192315.3            0   -190172.71   -564.27743    85.941995    92.810119     86.68505     4.621456     650.0428    79975.421 
  230000    599.91084   -192333.99            0   -190190.11   -589.36271    85.941995    92.810119     86.68505    4.0107944    654.93822    79952.842 
  231000    593.28413   -192337.01            0   -190216.82   -633.74387    85.941995    92.810119     86.68505    4.6088948    659.78727    79924.917 
  232000    601.18936   -192351.75            0    -190203.3   -704.73159    85.941995    92.810119     86.68505    5.5226678    664.70798    79905.957 
  233000    601.97267   -192373.08            0   -190221.84   -786.22444    85.941995    92.810119     86.68505    4.4283653    670.09788    79943.181 
  234000     601.8801    -192345.9            0   -190194.98   -601.86654    85.941995    92.810119     86.68505    4.9795478    675.27237    79954.264 
  235000    598.32239   -192359.86            0   -190221.66   -710.18484    85.941995    92.810119     86.68505    4.2572776    680.23477    79940.182 
  236000    601.28001   -192367.15            0   -190218.38   -923.01242    85.941995    92.810119     86.68505    5.1983772    685.47819    79959.014 
  237000     597.9704   -192358.83            0   -190221.89   -318.05371    85.941995    92.810119     86.68505    4.5295515    690.80708    79987.392 
  238000    598.12714   -192348.44            0   -190210.94   -836.62509    85.941995    92.810119     86.68505    4.6640151    695.54972    79947.897 
  239000    598.96486   -192332.04            0   -190191.54   -1223.3816    85.941995    92.810119     86.68505    4.8694465    700.32458    79912.577 
  240000    599.88558    -192352.3            0   -190208.52   -485.28352    85.941995    92.810119     86.68505    4.0638352    705.16173     79884.75 
  241000    598.40505   -192349.87            0   -190211.37   -699.83613    85.941995    92.810119     86.68505    4.0741987    710.40865    79903.339 
  242000    601.92558   -192342.52            0   -190191.44   -799.05478    85.941995    92.810119     86.68505    4.3083483    715.53578    79908.214 
  243000    601.01703   -192348.66            0   -190200.83   -625.28262    85.941995    92.810119     86.68505    4.0310732    720.35254    79878.533 
  244000    595.69349   -192349.26            0   -190220.45   -509.16939    85.941995    92.810119     86.68505    4.0165477    725.63878    79900.893 
  245000     597.4539   -192339.04            0   -190203.95   -641.19728    85.941995    92.810119     86.68505    4.4888773    730.89342    79919.415 
  246000    600.85567   -192326.36            0   -190179.11   -675.52156    85.941995    92.810119     86.68505     4.598829     735.6459    79883.083 
  247000    598.19914   -192346.77            0   -190209.01   -526.32727    85.941995    92.810119     86.68505     4.758077    740.45051    79852.802 
  248000    599.71983      -192345            0    -190201.8   -473.84082    85.941995    92.810119     86.68505    4.5910703     745.2922    79826.837 
  249000    599.05719   -192342.79            0   -190201.97   -319.00181    85.941995    92.810119     86.68505    4.9282614    750.58212    79848.841 
  250000    597.76063   -192352.89            0    -190216.7    -350.0357    85.941995    92.810119     86.68505    4.3222556    755.63369    79845.294 
  251000    598.77767   -192333.76            0   -190193.93   -550.21104    85.941995    92.810119     86.68505    4.4712688       760.57    79829.629 
  252000    599.05151   -192349.35            0   -190208.55   -469.92363    85.941995    92.810119     86.68505    3.9284365    765.92948    79858.226 
  253000    600.20819   -192362.32            0   -190217.38   -651.33895    85.941995    92.810119     86.68505      4.30377    771.13875    79870.822 
  254000    594.08921   -192361.46            0   -190238.39   -836.34432    85.941995    92.810119     86.68505    4.3462994    775.94019    79841.222 
  255000    603.89992   -192365.73            0    -190207.6   -678.21397    85.941995    92.810119     86.68505    4.2387914    780.66607    79804.218 
  256000    594.97755   -192349.01            0   -190222.77   -757.57284    85.941995    92.810119     86.68505     4.802003    785.58354    79787.087 
  257000    601.26012    -192358.3            0    -190209.6   -627.79191    85.941995    92.810119     86.68505    4.0371207    790.80707    79800.996 
  258000    599.32259   -192340.02            0   -190198.24   -622.94647    85.941995    92.810119     86.68505    4.5777614    795.90081    79801.649 
  259000    606.36079   -192355.12            0   -190188.19   -422.51828    85.941995    92.810119     86.68505    3.9469665     800.7797    79780.826 
  260000     604.5144      -192370            0   -190209.67    -490.0511    85.941995    92.810119     86.68505    4.5869769    806.17371    79811.198 
  261000    601.92455   -192334.38            0   -190183.31   -790.56221    85.941995    92.810119     86.68505    4.9270887    811.39832     79824.46 
  262000    598.56577   -192368.45            0   -190229.38   -434.54543    85.941995    92.810119     86.68505    4.1125393    816.15747    79791.988 
  263000    602.91364   -192356.57            0   -190201.96   -504.33812    85.941995    92.810119     86.68505    4.2923111    820.97812    79765.831 
  264000    598.56555   -192370.18            0   -190231.11    -793.3252    85.941995    92.810119     86.68505    4.3772739    825.82793    79742.751 
  265000    600.26978   -192363.33            0   -190218.18   -658.00917    85.941995    92.810119     86.68505    3.9542531     831.0945    79759.888 
  266000    594.12031    -192363.5            0   -190240.32   -1009.3857    85.941995    92.810119     86.68505     4.046936    836.17879    79759.367 
  267000    603.63272   -192352.57            0    -190195.4   -334.36589    85.941995    92.810119     86.68505     4.317545    841.00976    79734.776 
  268000    596.90395   -192349.59            0   -190216.46   -589.93413    85.941995    92.810119     86.68505    4.1883519    846.37135    79760.424 
  269000    600.02384   -192326.25            0   -190181.98   -346.06464    85.941995    92.810119     86.68505     4.031202    851.57092    79770.528 
  270000    601.77337   -192353.47            0   -190202.94   -414.22147    85.941995    92.810119     86.68505    4.5025607     856.3159    79738.122 
  271000    598.08967   -192360.47            0    -190223.1   -929.36311    85.941995    92.810119     86.68505    5.9655316    861.14071    79713.428 
  272000    603.12981   -192350.56            0   -190195.18    -517.7891    85.941995    92.810119     86.68505    4.3572143    866.11553    79702.771 
  273000    600.38484   -192349.71            0   -190204.14   -791.10523    85.941995    92.810119     86.68505    4.1994619    871.33288    79714.367 
  274000    600.08405   -192350.24            0   -190205.75    -831.2387    85.941995    92.810119     86.68505    4.7127167    876.50713     79721.85 
  275000    601.37474   -192349.06            0   -190199.96   -734.65945    85.941995    92.810119     86.68505    4.1499987    881.35747    79699.897 
  276000     598.6854   -192357.48            0   -190217.98   -640.72648    85.941995    92.810119     86.68505    4.5872619    886.72578    79724.709 
  277000    597.96034   -192344.45            0   -190207.55   -597.78728    85.941995    92.810119     86.68505    3.8148364    891.82544    79725.164 
  278000    599.58911   -192340.99            0   -190198.26   -473.42699    85.941995    92.810119     86.68505     4.264566    896.67241    79703.095 
  279000    601.38846   -192349.72            0   -190200.56   -823.79555    85.941995    92.810119     86.68505     4.755381    901.48779    79678.426 
  280000    599.83103   -192343.13            0   -190199.54   -597.86086    85.941995    92.810119     86.68505    3.9470858    906.25056    79649.355 
  281000    601.80319   -192342.31            0   -190191.67    82.249662    85.941995    92.810119     86.68505    4.3223017    911.43117     79657.07 
  282000    603.70966   -192352.63            0   -190195.18   -534.44686    85.941995    92.810119     86.68505    5.0552099    916.53278    79657.777 
  283000    598.67573   -192349.27            0   -190209.81   -689.27349    85.941995    92.810119     86.68505    4.0349526    921.42887    79640.658 
  284000    597.91876   -192346.25            0    -190209.5   -861.72024    85.941995    92.810119     86.68505    4.9463891    926.91131    79674.072 
  285000    594.67985   -192324.25            0   -190199.07   -644.01654    85.941995    92.810119     86.68505    4.9590525    932.04571    79677.313 
  286000    594.63741   -192353.61            0   -190228.58   -639.25769    85.941995    92.810119     86.68505    4.6943077    936.94479    79660.457 
  287000    593.73918   -192325.72            0    -190203.9   -584.94537    85.941995    92.810119     86.68505     4.539598    941.73689    79634.682 
  288000     601.3646   -192347.77            0    -190198.7   -571.83228    85.941995    92.810119     86.68505     4.061229    946.53697    79609.801 
  289000    592.34282   -192353.53            0    -190236.7   -798.81521    85.941995    92.810119     86.68505    4.3028594    951.77568    79621.827 
  290000     601.5688   -192340.83            0   -190191.03   -461.72911    85.941995    92.810119     86.68505    4.1180306     956.9688    79629.878 
  291000    598.98063    -192359.3            0   -190218.75   -750.94037    85.941995    92.810119     86.68505    4.1081781    962.00589    79624.875 
  292000    602.17501   -192318.59            0   -190166.63   -511.37986    85.941995    92.810119     86.68505    4.9231251    967.52829    79659.829 
  293000    601.50441   -192358.19            0   -190208.62   -490.23376    85.941995    92.810119     86.68505    4.3316104     972.5831    79656.068 
  294000    601.40877   -192343.08            0   -190193.85   -144.45444    85.941995    92.810119     86.68505    4.5110785    977.33278    79627.433 
  295000    601.91647   -192318.67            0   -190167.63   -326.93602    85.941995    92.810119     86.68505    5.6088922    982.11607    79601.767 
  296000    593.85202   -192339.53            0   -190217.31   -213.27803    85.941995    92.810119     86.68505    4.7306297    987.07427    79590.417 
  297000    601.93273   -192363.21            0   -190212.11   -477.56193    85.941995    92.810119     86.68505    4.1880934    992.31169    79601.531 
  298000    602.03027   -192336.85            0    -190185.4   -916.89659    85.941995    92.810119     86.68505    5.8745305    997.46522    79605.785 
  299000    600.49499   -192359.43            0   -190213.47   -784.37158    85.941995    92.810119     86.68505    4.1896635    1002.4276    79594.765 
  300000    598.95943   -192326.23            0   -190185.76   -667.39769    85.941995    92.810119     86.68505     4.627304    1007.9072    79624.665 
  301000    599.67125   -192348.96            0   -190205.94   -601.99971    85.941995    92.810119     86.68505    4.6806187    1012.9398    79619.084 
  302000    602.21511   -192344.48            0   -190192.37   -735.46519    85.941995    92.810119     86.68505    4.4576344      1017.65    79588.291 
  303000     599.9689   -192361.38            0   -190217.29    -491.6869    85.941995    92.810119     86.68505    4.3328223    1022.3851    79559.695 
  304000    602.56339      -192345            0   -190191.65   -154.33671    85.941995    92.810119     86.68505    5.3111854    1027.3977    79552.815 
  305000     600.3363    -192353.1            0    -190207.7   -483.83053    85.941995    92.810119     86.68505    4.0876133    1032.5869    79559.561 
  306000    597.42502   -192358.68            0   -190223.69   -446.52973    85.941995    92.810119     86.68505    5.2571298    1037.6887    79559.494 
  307000    599.26241   -192351.44            0   -190209.88   -155.51061    85.941995    92.810119     86.68505    4.2136662    1042.6515    79548.771 
  308000    597.96894   -192331.31            0   -190194.37   -522.46768    85.941995    92.810119     86.68505    4.4371895    1048.1271    79577.036 
  309000    598.64162   -192354.02            0   -190214.68   -445.71134    85.941995    92.810119     86.68505    4.6298894    1053.2038    79574.837 
  310000    604.27579   -192368.96            0   -190209.49   -715.87635    85.941995    92.810119     86.68505    4.6703733     1058.036    79554.234 
  311000    603.02448   -192339.21            0   -190184.21   -495.67127    85.941995    92.810119     86.68505    4.2685919    1062.7571    79525.457 
  312000    599.56117   -192355.21            0   -190212.59   -291.75618    85.941995    92.810119     86.68505    4.6961759     1067.806    79521.324 
  313000     597.7807   -192346.78            0   -190210.51   -697.95028    85.941995    92.810119     86.68505    3.9534384    1072.8959    79520.221 
  314000     600.6824   -192330.79            0   -190184.16   -240.00763    85.941995    92.810119     86.68505    4.8103705     1077.946    79516.148 
  315000     603.4396   -192354.06            0   -190197.58   -404.28235    85.941995    92.810119     86.68505     4.380801    1082.8267    79499.626 
  316000    598.58936   -192368.11            0   -190228.96    -344.2284    85.941995    92.810119     86.68505    4.9175907    1088.2816    79525.172 
  317000     601.3598   -192334.37            0   -190185.32   -522.17968    85.941995    92.810119     86.68505    4.2015699    1093.2009    79511.471 
  318000    601.30127   -192345.94            0    -190197.1   -771.03779    85.941995    92.810119     86.68505    4.3275622    1097.9643     79486.57 
  319000    598.47031    -192328.7            0   -190189.97   -525.31642    85.941995    92.810119     86.68505    3.8225663    1102.7562    79463.905 
  320000    601.80528   -192346.18            0   -190195.53   -594.64519    85.941995    92.810119     86.68505    4.6828008    1107.8942    79466.231 
  321000     599.2037   -192336.45            0    -190195.1    -672.8596    85.941995    92.810119     86.68505    4.4106455    1112.8228    79453.535 
  322000     595.3138   -192329.34            0    -190201.9   -595.18721    85.941995    92.810119     86.68505    4.3737961    1117.8587    79448.534 
  323000    597.51498   -192343.14            0   -190207.83   -337.40804    85.941995    92.810119     86.68505    4.9688628    1122.8961    79443.639 
  324000    604.31965   -192347.47            0   -190187.84    8.8840012    85.941995    92.810119     86.68505    4.3096396    1128.3947    79471.223 
  325000    599.49468   -192339.19            0   -190196.81   -185.75641    85.941995    92.810119     86.68505     4.462497     1133.269    79454.749 
  326000    600.43904   -192349.87            0   -190204.11   -451.42041    85.941995    92.810119     86.68505    3.8355767    1138.0123    79429.228 
  327000    597.27711   -192340.16            0    -190205.7   -442.19159    85.941995    92.810119     86.68505    4.8103824    1142.6945    79399.651 
  328000    601.34532   -192340.21            0    -190191.2   -26.261097    85.941995    92.810119     86.68505    3.7191288    1147.8662    79404.147 
  329000    597.10715    -192349.2            0   -190215.35   -360.35693    85.941995    92.810119     86.68505    4.5536915    1152.9576    79403.032 
  330000    602.38725   -192348.68            0   -190195.95   -522.99104    85.941995    92.810119     86.68505    4.6480488    1157.9234     79393.27 
  331000    601.76934   -192358.84            0   -190208.32   -482.34032    85.941995    92.810119     86.68505    4.6803647    1162.9458    79387.412 
  332000     602.4355   -192363.33            0   -190210.44   -488.84612    85.941995    92.810119     86.68505    4.8720694    1168.4483    79414.195 
  333000    599.80136   -192368.28            0    -190224.8   -337.85711    85.941995    92.810119     86.68505      3.89324    1173.3104     79397.36 
  334000    600.99524   -192351.76            0   -190204.01   -722.65948    85.941995    92.810119     86.68505    4.4737032    1178.0769     79374.19 
  335000    598.49395   -192379.01            0    -190240.2   -834.45398    85.941995    92.810119     86.68505    4.1423019    1182.8989    79354.898 
  336000    597.63779   -192339.34            0   -190203.58   -239.97988    85.941995    92.810119     86.68505    4.3863399    1188.0602    79358.393 
  337000    602.32023   -192338.67            0   -190186.19   -446.33631    85.941995    92.810119     86.68505     5.026365     1193.195    79360.054 
  338000    602.50145   -192375.61            0   -190222.48   -114.08537    85.941995    92.810119     86.68505    4.6492277    1198.2582    79356.914 
  339000    594.84528   -192343.27            0    -190217.5   -384.56331    85.941995    92.810119     86.68505    4.2838962    1203.2551    79349.386 
  340000    597.48429    -192347.3            0   -190212.09   -472.33307    85.941995    92.810119     86.68505    4.3269291     1208.834    79380.101 
  341000    596.58123   -192366.23            0   -190234.26   -619.82853    85.941995    92.810119     86.68505     4.767519    1213.6016    79357.458 
  342000    601.32487   -192366.56            0   -190217.64   -684.11016    85.941995    92.810119     86.68505    5.6528884    1218.3428    79333.251 
  343000    598.98053   -192371.69            0   -190231.14   -321.30248    85.941995    92.810119     86.68505    4.5308048    1223.1468    79313.266 
  344000    597.84692   -192360.38            0   -190223.88   -546.62957    85.941995    92.810119     86.68505    4.0211428    1228.3901     79321.78 
  345000    602.21714    -192363.7            0   -190211.59   -401.05512    85.941995    92.810119     86.68505    5.1816146    1233.5863    79327.151 
  346000    600.99838   -192383.82            0   -190236.06    -718.3659    85.941995    92.810119     86.68505    4.4628729    1238.5317    79316.373 
  347000    604.77914   -192369.61            0   -190208.34   -665.13495    85.941995    92.810119     86.68505    4.2984924    1243.6404    79316.064 
  348000    600.50333   -192384.93            0   -190238.94   -579.11852    85.941995    92.810119     86.68505    4.3209042    1249.0511    79334.893 
  349000    600.30611    -192362.9            0   -190217.61   -356.00578    85.941995    92.810119     86.68505    4.4130289    1253.8493     79314.78 
  350000    602.31145   -192386.44            0   -190233.99   -203.79788    85.941995    92.810119     86.68505    4.5298567    1258.6355    79294.039 
  351000    596.36865   -192377.93            0   -190246.72   -962.29043    85.941995    92.810119     86.68505    5.4794474    1263.3941    79271.689 
  352000    599.68799   -192362.04            0   -190218.96   -212.24851    85.941995    92.810119     86.68505    4.0697282     1268.553    79274.493 
  353000    607.79589   -192381.57            0   -190209.52   -789.25738    85.941995    92.810119     86.68505    4.1431564     1273.736    79278.739 
  354000    602.26127    -192383.9            0   -190231.62   -330.15419    85.941995    92.810119     86.68505    4.5314683    1278.7462    79272.195 
  355000    602.25696   -192392.67            0   -190240.41   -537.68975    85.941995    92.810119     86.68505    4.0647706    1283.9199     79275.76 
  356000    601.34811   -192348.04            0   -190199.02   -438.22545    85.941995    92.810119     86.68505    4.4276521    1289.3275     79293.64 
  357000     598.0809   -192343.01            0   -190205.67   -698.77906    85.941995    92.810119     86.68505    4.1225648    1294.0675    79270.448 
  358000    593.90476   -192349.92            0   -190227.51   -267.92952    85.941995    92.810119     86.68505     4.216433    1298.8061    79247.312 
  359000    595.36149   -192362.22            0    -190234.6    27.620304    85.941995    92.810119     86.68505    5.2420133    1303.6493    79230.671 
  360000    603.15422   -192374.59            0   -190219.12     -326.425    85.941995    92.810119     86.68505    4.2246824    1308.8239    79234.183 
  361000    602.29883   -192350.89            0   -190198.48    17.677528    85.941995    92.810119     86.68505    3.8822162    1313.8794    79230.449 
  362000    601.45771   -192356.31            0    -190206.9   -246.19258    85.941995    92.810119     86.68505    4.4200365      1318.81    79219.206 
  363000    598.44051   -192384.81            0   -190246.19   -602.48068    85.941995    92.810119     86.68505    4.8556762    1324.0077     79223.99 
  364000    595.43188   -192356.58            0   -190228.72   -306.81109    85.941995    92.810119     86.68505    4.6258928    1329.3665    79238.297 
  365000    599.57357   -192370.55            0   -190227.88     -472.258    85.941995    92.810119     86.68505    4.9144991    1334.3545    79230.447 
  366000    600.92496   -192345.57            0   -190198.07   -359.82789    85.941995    92.810119     86.68505    4.6621895    1339.0723    79206.632 
  367000    603.09512    -192379.7            0   -190224.45   -574.26787    85.941995    92.810119     86.68505    4.4972421      1343.97    79193.559 
  368000    596.95408   -192332.81            0    -190199.5   -401.21302    85.941995    92.810119     86.68505    4.5142817    1349.0826    79193.159 
  369000    603.08565   -192381.08            0   -190225.86   -224.51044    85.941995    92.810119     86.68505    4.6912964    1354.1328    79189.082 
  370000    600.37238   -192358.42            0    -190212.9   -440.27267    85.941995    92.810119     86.68505    3.9043933    1359.0428    79176.824 
  371000    597.22099   -192379.89            0   -190245.63   -394.86704    85.941995    92.810119     86.68505    4.3449239    1364.1414    79175.571 
  372000    600.43337   -192359.13            0   -190213.39   -579.85513    85.941995    92.810119     86.68505    4.2550669    1369.6319     79196.95 
  373000    598.74972   -192360.16            0   -190220.43   -539.17626    85.941995    92.810119     86.68505    4.3729482    1374.3789      79175.3 
  374000    593.90046   -192375.81            0   -190253.42   -885.82147    85.941995    92.810119     86.68505    4.1004464    1379.1686    79156.224 
  375000      604.568   -192358.28            0   -190197.77   -609.22856    85.941995    92.810119     86.68505    4.3248836     1383.952     79136.89 
  376000    600.38128   -192364.63            0   -190219.07    -482.8855    85.941995    92.810119     86.68505    3.8142996    1389.0465    79135.388 
  377000    601.43197   -192339.55            0   -190190.24   -635.93682    85.941995    92.810119     86.68505    5.6162142     1394.154    79134.597 
  378000    600.64707   -192357.62            0   -190211.12   -296.11869    85.941995    92.810119     86.68505     4.371998    1399.2145    79131.118 
  379000    596.64598    -192370.9            0    -190238.7   -338.59043    85.941995    92.810119     86.68505     4.960919    1404.5167    79141.242 
  380000    601.58228   -192364.18            0   -190214.33   -653.61608    85.941995    92.810119     86.68505    5.0944002    1409.9263    79157.291 
  381000    606.72167   -192351.15            0   -190182.93   -611.15497    85.941995    92.810119     86.68505    4.7853431    1414.7523    79140.538 
  382000    594.25363   -192372.85            0   -190249.19   -760.01834    85.941995    92.810119     86.68505    4.0265203    1419.6135    79125.835 
  383000     602.6908   -192372.46            0   -190218.65   -562.82726    85.941995    92.810119     86.68505    4.4359202    1424.3834    79106.127 
  384000    604.48445   -192359.37            0   -190199.15   -447.73117    85.941995    92.810119     86.68505    4.0420911    1429.5276    79107.239 
  385000    599.94822   -192357.87            0   -190213.86   -420.79638    85.941995    92.810119     86.68505    4.1253709    1434.6259    79105.775 
  386000    594.16254    -192342.3            0   -190218.97   -407.82558    85.941995    92.810119     86.68505    4.4668476    1439.4725    79090.457 
  387000    601.40238   -192363.86            0   -190214.65   -258.54512    85.941995    92.810119     86.68505    4.0100233    1444.7021    79096.179 
  388000    605.38192   -192370.38            0   -190206.95   -457.24336    85.941995    92.810119     86.68505    4.6000808    1450.1036    79111.205 
  389000    590.29337   -192356.05            0   -190246.54   -636.36042    85.941995    92.810119     86.68505     4.391544    1454.9138    79093.947 
  390000    602.32103   -192371.01            0   -190218.53   -296.46406    85.941995    92.810119     86.68505    4.5235636    1459.5816    79069.058 
  391000    603.11013   -192362.93            0   -190207.62   -452.45336    85.941995    92.810119     86.68505    4.4470103    1464.4336    79054.255 
  392000    602.82387   -192385.93            0   -190231.64   -595.22509    85.941995    92.810119     86.68505     3.895989    1469.6937    79061.469 
  393000    599.67218   -192364.69            0   -190221.67   -575.71443    85.941995    92.810119     86.68505     5.414717    1474.8312    79062.028 
  394000    595.30249   -192348.69            0   -190221.28   -457.63238    85.941995    92.810119     86.68505    4.7052207    1479.7317    79049.883 
  395000    600.65418   -192363.64            0   -190217.11   -372.80548    85.941995    92.810119     86.68505    4.6398538    1484.9919    79056.941 
  396000    595.93574   -192381.93            0   -190252.26   -441.78028    85.941995    92.810119     86.68505     4.696137    1490.3743      79070.4 
  397000    598.88308   -192359.68            0   -190219.48   -350.86451    85.941995    92.810119     86.68505    4.1927559    1495.1326    79050.734 
  398000    600.53003   -192352.52            0   -190206.44   -395.94525    85.941995    92.810119     86.68505    4.8030461    1499.9667    79035.161 
  399000     600.9402   -192366.03            0   -190218.48   -522.56288    85.941995    92.810119     86.68505    4.4310123    1504.7342    79016.162 
  400000    595.25794   -192379.21            0   -190251.96   -307.01717    85.941995    92.810119     86.68505    4.4492542    1509.9112    79018.688 
  401000    598.13941   -192364.13            0   -190226.58   -517.06499    85.941995    92.810119     86.68505    4.1759118    1514.9003     79011.36 
  402000    603.94662    -192357.5            0    -190199.2   -84.335281    85.941995    92.810119     86.68505     4.030437    1519.8546    79002.244 
  403000    596.23555   -192394.23            0   -190263.49   -427.80796    85.941995    92.810119     86.68505    4.3992193    1525.1616    79011.427 
  404000    601.20664   -192364.92            0   -190216.42   -691.80861    85.941995    92.810119     86.68505    4.3405431       1530.6    79027.296 
  405000    600.98659    -192392.7            0   -190244.98   -273.40554    85.941995    92.810119     86.68505    4.7240926    1535.4428    79012.377 
  406000    601.99394    -192362.2            0   -190210.88    -440.6004    85.941995    92.810119     86.68505    4.4437131    1540.1736    78991.778 
  407000    600.77442   -192365.67            0   -190218.71   -613.02323    85.941995    92.810119     86.68505    4.6327901    1545.0251    78977.458 
  408000    598.22112   -192362.62            0   -190224.79   -641.97842    85.941995    92.810119     86.68505    4.4287961    1550.2787    78983.678 
  409000    601.41414   -192364.14            0    -190214.9   -259.99991    85.941995    92.810119     86.68505    4.4865864    1555.2818    78977.107 
  410000    596.88085   -192356.69            0   -190223.64   -736.99931    85.941995    92.810119     86.68505    4.7388019    1560.1276    78962.586 
  411000    597.88688   -192366.84            0    -190230.2   -725.03019    85.941995    92.810119     86.68505    4.1857285    1565.4622    78972.787 
  412000    598.95112   -192350.27            0   -190209.83    -525.9128    85.941995    92.810119     86.68505     4.888396    1570.8377    78984.941 
  413000    599.11491   -192371.01            0   -190229.98   -481.72567    85.941995    92.810119     86.68505    4.3634932    1575.6063    78966.569 
  414000    597.95706   -192356.87            0   -190219.98   -332.04147    85.941995    92.810119     86.68505    5.6438652    1580.4695    78953.007 
  415000    600.40095   -192394.73            0   -190249.11    -497.6482    85.941995    92.810119     86.68505    5.0547836    1585.2733    78936.545 
  416000    598.84221   -192358.73            0   -190218.67   -240.86378    85.941995    92.810119     86.68505    4.4969542    1590.5896    78945.593 
  417000    595.08635    -192389.5            0   -190262.86   -461.79012    85.941995    92.810119     86.68505    4.2460874    1595.6329    78941.043 
  418000    599.18646   -192370.12            0   -190228.84   -561.62143    85.941995    92.810119     86.68505     4.347549    1600.5957    78932.519 
  419000    598.54499      -192364            0      -190225   -610.70416    85.941995    92.810119     86.68505       4.3901    1605.9944     78945.45 
  420000    599.35087   -192331.34            0   -190189.47   -273.37314    85.941995    92.810119     86.68505     4.392446    1611.3283    78955.086 
  421000    597.92215   -192372.15            0   -190235.38   -135.78553    85.941995    92.810119     86.68505    4.1822081    1616.2044    78942.272 
  422000     602.5343    -192373.8            0   -190220.55    -432.9904    85.941995    92.810119     86.68505    4.4135484    1620.9443    78922.872 
  423000    600.37845   -192381.41            0   -190235.86   -583.24988    85.941995    92.810119     86.68505    4.0583282    1625.8614    78912.164 
  424000    600.10443    -192359.4            0   -190214.83   -896.63665    85.941995    92.810119     86.68505    5.2138656    1630.9784    78911.163 
  425000    597.49629   -192372.01            0   -190236.76   -802.30083    85.941995    92.810119     86.68505    4.5024232    1636.0382     78907.38 
  426000     594.3591   -192354.77            0   -190230.74   -529.53185    85.941995    92.810119     86.68505    4.5211868    1640.9566    78896.792 
  427000     600.5648   -192360.25            0   -190214.04   -606.07778    85.941995    92.810119     86.68505    4.4963227    1646.3515    78909.074 
  428000    598.19094   -192333.25            0   -190195.52   -480.23712    85.941995    92.810119     86.68505     4.231613    1651.6257    78915.481 
  429000     595.2887   -192353.02            0   -190225.66    -336.2489    85.941995    92.810119     86.68505    4.4296329    1656.4071    78898.344 
  430000    604.20857   -192353.06            0   -190193.82   -222.47814    85.941995    92.810119     86.68505     4.116818    1661.1162    78877.849 
  431000    600.78123   -192368.07            0   -190221.08   -299.71263    85.941995    92.810119     86.68505    4.2934913    1665.9958    78865.521 
  432000    598.58261   -192355.64            0   -190216.52   -684.83483    85.941995    92.810119     86.68505    4.4917988    1671.1715    78867.215 
  433000     599.0881   -192352.99            0   -190212.05   -104.67087    85.941995    92.810119     86.68505    4.2870551    1676.2023    78862.047 
  434000    594.28452   -192348.33            0   -190224.56    -461.5895    85.941995    92.810119     86.68505    4.1098928    1681.0055    78846.203 
  435000    603.55838   -192344.05            0   -190187.14   -676.91039    85.941995    92.810119     86.68505    4.7176211    1686.3789    78857.092 
  436000    600.26933   -192347.84            0   -190202.68   -437.15288    85.941995    92.810119     86.68505    4.5208596    1691.6142    78861.442 
  437000     598.5777   -192362.13            0   -190223.02   -335.19143    85.941995    92.810119     86.68505    4.9944603    1696.4958      78849.3 
  438000    598.19603   -192380.33            0   -190242.58   -641.86879    85.941995    92.810119     86.68505    4.3364259    1701.2422    78830.932 
  439000    600.55993    -192350.7            0   -190204.51   -718.69664    85.941995    92.810119     86.68505    4.6763902     1706.292    78826.662 
  440000    598.98214   -192347.28            0   -190206.72     -327.693    85.941995    92.810119     86.68505    4.2754653    1711.4853    78829.001 
  441000    598.34746   -192347.92            0   -190209.63   -455.32467    85.941995    92.810119     86.68505     5.390333    1716.5832    78826.911 
  442000    601.14729   -192359.24            0   -190210.95   -352.81812    85.941995    92.810119     86.68505    4.8908948    1721.4787    78815.536 
  443000    598.93556   -192349.74            0   -190209.35    -386.7501    85.941995    92.810119     86.68505     4.481062    1726.8499    78825.913 
  444000    600.14745   -192354.42            0    -190209.7   -524.92317    85.941995    92.810119     86.68505    5.2138671    1731.9858    78825.492 
  445000    596.67689   -192381.67            0   -190249.36   -579.19553    85.941995    92.810119     86.68505    4.0852585    1736.7157    78806.619 
  446000     604.2896   -192361.36            0   -190201.83   -482.59969    85.941995    92.810119     86.68505    4.4936475     1741.548    78792.465 
  447000    602.98389   -192357.53            0   -190202.67   -358.46692    85.941995    92.810119     86.68505    4.5417512    1746.5634    78786.617 
  448000    599.79448   -192367.84            0   -190224.38   -334.41228    85.941995    92.810119     86.68505    4.7878655    1751.8512    78793.033 
  449000    596.18457   -192341.67            0   -190211.11    -821.0435    85.941995    92.810119     86.68505    4.2643716    1756.9101    78789.112 
  450000    595.31088   -192363.68            0   -190236.24   -617.72742    85.941995    92.810119     86.68505    3.9156592    1761.8408    78779.453 
  451000    605.71472   -192338.75            0   -190174.14    -327.5218    85.941995    92.810119     86.68505    4.4369662    1767.3234    78794.428 
  452000    599.07749   -192367.79            0   -190226.89   -504.62817    85.941995    92.810119     86.68505    4.6556985     1772.297    78786.659 
  453000    599.63075   -192353.69            0   -190210.82   -372.94839    85.941995    92.810119     86.68505    5.2784873    1777.0935    78771.056 
  454000    600.18585   -192380.72            0   -190235.87   -468.00735    85.941995    92.810119     86.68505    4.5151396    1781.9278    78757.183 
  455000    598.81553   -192358.51            0   -190218.55    94.383683    85.941995    92.810119     86.68505    4.1890773    1786.9122    78749.975 
  456000    601.59297   -192356.44            0   -190206.55    -559.9817    85.941995    92.810119     86.68505    4.1908518    1792.0681    78750.317 
  457000    596.45333   -192393.12            0   -190261.61   -465.02995    85.941995    92.810119     86.68505    4.0812594    1797.0933    78744.902 
  458000     606.0957   -192359.69            0   -190193.71    -678.1202    85.941995    92.810119     86.68505    4.3414348    1802.0811    78737.858 
  459000    599.14629   -192360.39            0   -190219.25   -162.60066    85.941995    92.810119     86.68505    4.0968021    1807.5679     78752.56 
  460000    602.38867   -192352.54            0   -190199.81   -191.35552    85.941995    92.810119     86.68505    4.6710049    1812.5287    78744.303 
  461000    600.24521   -192371.42            0   -190226.35   -314.59329    85.941995    92.810119     86.68505    4.5259011    1817.2994    78727.825 
  462000    596.84005   -192363.74            0   -190230.84   -317.17598    85.941995    92.810119     86.68505    4.1632233    1822.0171    78709.127 
  463000    597.69188   -192345.58            0   -190209.63   -407.60607    85.941995    92.810119     86.68505    4.6897521    1827.0315     78703.28 
  464000    605.08176    -192335.7            0   -190173.35   -775.37797    85.941995    92.810119     86.68505    4.0348067    1832.2257    78705.169 
  465000    601.54445   -192358.57            0   -190208.86   -503.23179    85.941995    92.810119     86.68505    4.6628393    1837.3028        78702 
  466000    605.24526   -192341.81            0   -190178.87   -631.12354    85.941995    92.810119     86.68505    4.2233105    1842.2969    78695.271 
  467000    603.43557   -192367.29            0   -190210.82   -156.86928    85.941995    92.810119     86.68505    4.8151294    1847.8895    78714.052 
  468000    601.73691   -192355.13            0   -190204.73   -422.00502    85.941995    92.810119     86.68505    4.2371511    1852.7463    78701.443 
  469000    596.04615   -192380.26            0   -190250.19   -404.44266    85.941995    92.810119     86.68505    4.3897443    1857.5649    78687.257 
  470000    601.89061   -192351.25            0    -190200.3   -287.50537    85.941995    92.810119     86.68505     4.303036    1862.3932    78673.528 
  471000    600.49617   -192375.14            0   -190229.17   -348.33232    85.941995    92.810119     86.68505    4.6809271    1867.4302    78668.645 
  472000    599.74256   -192367.15            0   -190223.88   -491.90335    85.941995    92.810119     86.68505     4.090964    1872.7723    78676.576 
[...]
15980000    596.01393   -192366.13            0   -190236.18   -697.86465    85.941995    92.810119     86.68505     4.658252    80781.427      610.439 
15981000     602.8175   -192359.41            0   -190205.15   -450.75255    85.941995    92.810119     86.68505    5.0743097    80786.241    605.34996 
15982000    604.62571   -192344.07            0   -190183.34   -431.63168    85.941995    92.810119     86.68505    4.4511116    80791.393    600.26347 
15983000    598.60512   -192360.17            0   -190220.96     -418.385    85.941995    92.810119     86.68505    4.5588834    80796.579    595.17722 
15984000    598.61939   -192349.14            0   -190209.88   -291.74464    85.941995    92.810119     86.68505    4.4930444    80801.688    590.09039 
15985000    606.68527   -192360.22            0   -190192.14   -453.32571    85.941995    92.810119     86.68505     4.297928    80807.043    585.00535 
15986000    600.27038   -192371.95            0   -190226.79   -577.67662    85.941995    92.810119     86.68505    5.7771108    80812.422    579.92044 
15987000    599.12755   -192380.36            0   -190239.29    -387.8706    85.941995    92.810119     86.68505    4.8770852    80817.246    574.83155 
15988000    595.53245   -192351.62            0   -190223.39   -597.02917    85.941995    92.810119     86.68505    4.7329947    80822.083    569.74278 
15989000    605.58074   -192344.92            0   -190180.78   -499.90996    85.941995    92.810119     86.68505    5.1200214    80826.858    564.65361 
15990000    597.98873   -192388.81            0    -190251.8   -741.81288    85.941995    92.810119     86.68505     4.898841    80832.031    559.56724 
15991000    595.57268   -192372.08            0   -190243.71   -565.21052    85.941995    92.810119     86.68505    4.5586169     80837.13    554.48035 
15992000    600.50429   -192359.95            0   -190213.96    -559.4406    85.941995    92.810119     86.68505    4.9734269    80842.121    549.39272 
15993000     596.1998   -192358.35            0   -190227.74   -633.79913    85.941995    92.810119     86.68505    4.4040044    80847.494    544.30767 
15994000     600.2318   -192369.47            0   -190224.45   -361.58766    85.941995    92.810119     86.68505    4.3859862    80852.757    539.22186 
15995000    600.35706   -192378.39            0   -190232.92   -404.10555    85.941995    92.810119     86.68505    4.4305012    80857.545    534.13289 
15996000    602.74324   -192369.17            0   -190215.17   -963.55159    85.941995    92.810119     86.68505    4.8627291    80862.348    529.04405 
15997000     600.5446   -192365.01            0   -190218.87     -599.496    85.941995    92.810119     86.68505    4.8524884    80867.098     523.9549 
15998000    598.20119   -192360.99            0   -190223.23   -641.74806    85.941995    92.810119     86.68505    4.4359652    80872.301    518.86871 
15999000    602.38803   -192361.83            0    -190209.1   -365.44454    85.941995    92.810119     86.68505    4.2010535    80877.441     513.7821 
16000000    599.57667   -192360.12            0   -190217.44   -569.37007    85.941995    92.810119     86.68505    4.2798253     80882.54    508.69522 
16001000    602.53888   -192369.93            0   -190216.67   -657.82287    85.941995    92.810119     86.68505     4.308195    80887.963    503.61036 
16002000    603.64683   -192361.61            0   -190204.39   -515.46947    85.941995    92.810119     86.68505    4.0522995    80893.238    498.52454 
16003000    595.36654   -192386.43            0   -190258.79   -207.04645    85.941995    92.810119     86.68505    4.6582932    80898.037     493.4358 
16004000    600.34476   -192377.93            0   -190232.51   -453.36749    85.941995    92.810119     86.68505    4.2376991    80902.799    488.34687 
16005000    597.17281   -192351.41            0   -190217.32   -519.38188    85.941995    92.810119     86.68505    4.2047011    80907.587    483.25814 
16006000    602.91298   -192358.67            0   -190204.07   -305.61306    85.941995    92.810119     86.68505    5.2289065    80912.791    478.17191 
16007000    600.81804   -192357.24            0   -190210.12   -743.44267    85.941995    92.810119     86.68505    4.3087037    80917.959    473.08544 
16008000    595.21997    -192376.1            0   -190248.99   -586.03785    85.941995    92.810119     86.68505    4.1845467    80923.123    467.99895 
16009000    600.85823   -192351.19            0   -190203.93   -471.30101    85.941995    92.810119     86.68505    4.7164225    80928.618    462.91434 
16010000    604.39593   -192358.14            0   -190198.23   -595.39949    85.941995    92.810119     86.68505    4.7014847    80933.792    457.82786 
16011000    602.72955   -192374.09            0   -190220.14    -396.0479    85.941995    92.810119     86.68505    4.6123008    80938.493    452.73873 
16012000    599.47823   -192394.73            0    -190252.4   -516.06824    85.941995    92.810119     86.68505    4.4324758    80943.259       447.65 
16013000    601.17015   -192350.68            0    -190202.3    -387.2946    85.941995    92.810119     86.68505    4.1206697    80948.138    442.56193 
16014000    596.53396    -192363.6            0   -190231.79   -465.27322    85.941995    92.810119     86.68505    4.3130735    80953.347    437.47567 
16015000    598.79964   -192379.97            0   -190240.07   -486.89337    85.941995    92.810119     86.68505    3.9706201    80958.461    432.38889 
16016000     601.2921   -192375.22            0    -190226.4   -569.69455    85.941995    92.810119     86.68505    5.3988305     80963.67     427.3026 
16017000    599.49847   -192387.96            0   -190245.56   -452.23759    85.941995    92.810119     86.68505    4.0160593    80969.031     422.2171 
16018000    601.23559   -192362.39            0   -190213.78   -897.28234    85.941995    92.810119     86.68505    4.9338127    80974.187     417.1305 
16019000    597.85077   -192394.06            0   -190257.55   -534.09334    85.941995    92.810119     86.68505    4.8065364    80979.012    412.04221 
16020000    598.65654   -192355.64            0   -190216.25   -726.81139    85.941995    92.810119     86.68505    4.4436132    80983.789    406.95371 
16021000    599.77141   -192358.15            0   -190214.78    -711.8411    85.941995    92.810119     86.68505    3.9995486    80988.649    401.86566 
16022000    596.12317   -192356.51            0   -190226.17   -553.22987    85.941995    92.810119     86.68505    4.4620864    80993.929     396.7797 
16023000    605.64057   -192381.21            0   -190216.86   -863.91902    85.941995    92.810119     86.68505    4.9780906     80999.04     391.6929 
16024000    597.47745   -192361.35            0   -190226.17   -386.02797    85.941995    92.810119     86.68505      4.47488     81004.29    386.60676 
16025000    597.14892   -192342.28            0   -190208.27   -373.79014    85.941995    92.810119     86.68505    4.9406174    81009.611    381.52093 
16026000    600.82959   -192346.82            0   -190199.66   -592.73207    85.941995    92.810119     86.68505    4.6212116    81014.628    376.43366 
16027000    601.90793   -192357.11            0    -190206.1   -268.46218    85.941995    92.810119     86.68505    4.4434582    81019.472    371.34561 
16028000    598.55663   -192368.66            0   -190229.63   -471.05805    85.941995    92.810119     86.68505    4.1842327    81024.171    366.25692 
16029000    601.38786   -192364.89            0   -190215.73   -743.18308    85.941995    92.810119     86.68505    4.2016632    81029.005     361.1689 
16030000    595.67042   -192386.07            0   -190257.35   -407.93094    85.941995    92.810119     86.68505    3.7338177    81034.332    356.08306 
16031000    601.50802   -192362.49            0   -190212.91   -615.03911    85.941995    92.810119     86.68505    4.1004264    81039.506    350.99654 
16032000    598.81815   -192368.66            0   -190228.69   -961.91802    85.941995    92.810119     86.68505    3.9388734    81044.733    345.91023 
16033000    600.72714   -192357.27            0   -190210.48   -608.54382    85.941995    92.810119     86.68505    4.7312071    81050.137    340.82465 
16034000    600.66145   -192371.49            0   -190224.93   -750.01422    85.941995    92.810119     86.68505    4.0981874    81055.197     335.7376 
16035000    596.05396   -192359.73            0   -190229.64   -820.90931    85.941995    92.810119     86.68505     4.663615    81060.023    330.64961 
16036000    603.94249   -192350.65            0   -190192.37   -288.44342    85.941995    92.810119     86.68505    4.1007826    81064.826    325.56155 
16037000    598.74491   -192373.21            0    -190233.5   -762.28384    85.941995    92.810119     86.68505    4.1141914    81069.874     320.4745 
16038000    602.99233   -192371.85            0   -190216.97   -365.80691    85.941995    92.810119     86.68505     4.117912    81075.207    315.38856 
16039000    599.35421   -192362.16            0   -190220.28   -327.93747    85.941995    92.810119     86.68505    4.6263285    81080.272    310.30156 
16040000    597.48974   -192378.51            0   -190243.28   -378.05545    85.941995    92.810119     86.68505    5.3926316    81085.618    305.21562 
16041000    602.37225   -192371.92            0   -190219.25   -540.13012    85.941995    92.810119     86.68505      4.36631    81090.912    300.12947 
16042000    600.71166   -192368.45            0   -190221.71   -616.73773    85.941995    92.810119     86.68505    5.1811769    81095.935    295.04229 
16043000    598.51136    -192359.4            0   -190220.53   -836.57545    85.941995    92.810119     86.68505     5.680146    81100.737    289.95434 
16044000    601.07143   -192396.17            0   -190248.15   -613.75353    85.941995    92.810119     86.68505    4.7726091    81105.514    284.86633 
16045000    598.96276   -192363.97            0   -190223.48   -594.24346    85.941995    92.810119     86.68505    4.0865084    81110.417     279.7788 
16046000    601.08227    -192363.2            0   -190215.14   -448.24068    85.941995    92.810119     86.68505    4.6483477    81115.686    274.69253 
16047000    592.33583   -192361.43            0   -190244.62    -481.8226    85.941995    92.810119     86.68505    4.4127399    81120.757    269.60558 
16048000    602.81934   -192371.33            0   -190217.07   -772.31282    85.941995    92.810119     86.68505    4.6940067    81126.089    264.51948 
16049000    599.20683    -192385.8            0   -190244.44   -295.22667    85.941995    92.810119     86.68505     6.201084    81131.285    259.43291 
16050000    600.08419   -192381.79            0   -190237.29   -391.10202    85.941995    92.810119     86.68505    4.4242205    81136.258    254.34564 
16051000    596.77627   -192364.65            0   -190231.98   -593.24931    85.941995    92.810119     86.68505    4.6776013    81141.075    249.25789 
16052000    604.10505   -192370.93            0   -190212.07   -249.62446    85.941995    92.810119     86.68505    4.1741651    81145.877    244.17014 
16053000    603.78805   -192357.23            0    -190199.5   -431.92516    85.941995    92.810119     86.68505     4.107826    81150.715    239.08253 
16054000    603.30901   -192385.57            0   -190229.56   -845.40084    85.941995    92.810119     86.68505    4.7922334     81155.91    233.99598 
16055000    600.29372   -192379.79            0   -190234.55    -784.6138    85.941995    92.810119     86.68505    4.6849029     81161.08    228.90934 
16056000    601.84082   -192372.49            0   -190221.71   -648.44125    85.941995    92.810119     86.68505    4.4275688    81166.367    223.82302 
16057000    597.66278    -192379.7            0   -190243.86   -229.07318    85.941995    92.810119     86.68505    4.1432026    81171.665    218.73671 
16058000    602.72529    -192365.9            0   -190211.97   -174.38509    85.941995    92.810119     86.68505    5.1682494    81176.597     213.6494 
16059000    600.81391   -192374.74            0   -190227.63   -929.28153    85.941995    92.810119     86.68505    5.1927195    81181.459    208.56193 
16060000    601.38714   -192376.93            0   -190227.78   -812.40487    85.941995    92.810119     86.68505    4.1615199    81186.314    203.47447 
16061000    599.04362    -192385.2            0   -190244.42   -494.47395    85.941995    92.810119     86.68505    4.2777798    81191.293    198.38735 
16062000    593.08689   -192371.59            0    -190252.1   -275.35632    85.941995    92.810119     86.68505    4.9393323    81196.475    193.30072 
16063000    599.23114   -192374.59            0   -190233.14   -451.89696    85.941995    92.810119     86.68505    4.9180379     81201.55    188.21383 
16064000    605.90439   -192374.48            0   -190209.19   -230.89865    85.941995    92.810119     86.68505    5.3794675    81207.042    183.12788 
16065000    598.00467    -192353.7            0   -190216.64   -415.52154    85.941995    92.810119     86.68505    4.3366966    81212.384    178.04156 
16066000    597.87264   -192360.66            0   -190224.07   -588.75813    85.941995    92.810119     86.68505    4.1717199    81217.349     172.9544 
16067000    597.40219   -192367.05            0   -190232.14   -267.81465    85.941995    92.810119     86.68505    4.7442398    81222.132    167.86687 
16068000    595.52935   -192374.53            0   -190246.31   -733.10765    85.941995    92.810119     86.68505    5.1037557    81226.921     162.7794 
16069000    593.62774   -192367.06            0   -190245.64   -862.45563    85.941995    92.810119     86.68505    4.5145173    81231.983     157.6925 
16070000    599.52299   -192360.57            0   -190218.08   -392.23163    85.941995    92.810119     86.68505    4.4498826    81237.236    152.60595 
16071000    597.48825    -192364.6            0   -190229.38   -389.67715    85.941995    92.810119     86.68505    4.2845738    81242.347    147.51913 
16072000    601.48133   -192366.03            0   -190216.54   -392.38505    85.941995    92.810119     86.68505    5.1322762    81247.691    142.43272 
16073000    598.66274   -192360.68            0   -190221.27   -329.19035    85.941995    92.810119     86.68505    4.4098041    81252.961    137.34614 
16074000    602.88879   -192364.14            0   -190209.62    -140.9962    85.941995    92.810119     86.68505    4.2180536    81257.739    132.25875 
16075000    601.76337   -192318.01            0   -190167.52   -637.53592    85.941995    92.810119     86.68505    4.2114057    81262.459     127.1713 
16076000    598.06915   -192366.28            0   -190228.99   -789.84845    85.941995    92.810119     86.68505    3.7833068     81267.23    122.08397 
16077000    599.95255   -192355.44            0   -190211.42   -526.61711    85.941995    92.810119     86.68505    4.3251268    81272.235    116.99702 
16078000    592.20573   -192374.83            0   -190258.49   -373.46698    85.941995    92.810119     86.68505    4.4224905    81277.427    111.91034 
16079000    599.56311   -192350.09            0   -190207.46   -384.75675    85.941995    92.810119     86.68505    3.9065997    81282.555    106.82356 
16080000    605.55748    -192339.2            0   -190175.15   -424.42912    85.941995    92.810119     86.68505    3.8607582    81287.908    101.73706 
16081000    599.22397   -192372.27            0   -190230.85   -655.34552    85.941995    92.810119     86.68505    5.0615992    81293.125    96.650358 
16082000    596.13726   -192382.52            0   -190252.13   -585.02328    85.941995    92.810119     86.68505    4.4667609    81297.913    91.563161 
16083000    600.23453   -192387.86            0   -190242.83   -53.760632    85.941995    92.810119     86.68505    4.1004656    81302.743    86.476045 
16084000    603.45266   -192376.93            0    -190220.4   -356.41815    85.941995    92.810119     86.68505    4.3594072    81307.491     81.38888 
16085000    598.96639   -192379.12            0   -190238.62   -656.44721    85.941995    92.810119     86.68505    5.0097753    81312.583    76.302079 
16086000    602.92045   -192352.62            0   -190197.99   -888.73534    85.941995    92.810119     86.68505    4.4272797    81317.744    71.215339 
16087000    602.29586   -192380.97            0   -190228.57   -697.37912    85.941995    92.810119     86.68505    4.7356961    81322.773    66.128483 
16088000    596.01062   -192363.71            0   -190233.77   -533.04885    85.941995    92.810119     86.68505    4.2003214    81328.212     61.04194 
16089000    599.04492    -192363.2            0   -190222.42   -767.69413    85.941995    92.810119     86.68505    4.1157742    81333.405    55.955185 
16090000    598.87647    -192359.1            0   -190218.92   -427.25647    85.941995    92.810119     86.68505    4.8889501    81338.161    50.868143 
16091000    602.56059   -192359.28            0   -190205.93   -613.42313    85.941995    92.810119     86.68505    4.7389883    81342.978    45.781177 
16092000    599.26897    -192372.8            0   -190231.22   -663.48926    85.941995    92.810119     86.68505    4.3779035    81347.795    40.694244 
16093000    603.31626   -192351.07            0   -190195.03   -152.17251    85.941995    92.810119     86.68505    4.4783083    81352.939    35.607489 
16094000    600.22058    -192369.8            0   -190224.82   -262.23892    85.941995    92.810119     86.68505    4.0189444    81358.168    30.520758 
16095000    596.52065   -192376.23            0   -190244.47   -456.93021    85.941995    92.810119     86.68505     4.495492    81363.311    25.433983 
16096000     596.8968   -192351.16            0   -190218.05   -252.25087    85.941995    92.810119     86.68505    4.0823632    81368.716    20.347266 
16097000    599.21285   -192370.51            0   -190229.13   -530.33509    85.941995    92.810119     86.68505    6.3516573    81373.777    15.260444 
16098000    605.38664   -192361.41            0   -190197.96   -462.14984    85.941995    92.810119     86.68505    4.2040776    81378.539    10.173589 
16099000    598.95806   -192348.98            0   -190208.51   -472.78635    85.941995    92.810119     86.68505    4.6347958    81383.263    5.0867718 
16100000    598.39455   -192347.78            0   -190209.32    -513.9058    85.941995    92.810119     86.68505    4.8764535    81388.061            0 
Loop time of 81388.1 on 160 procs for 16000000 steps with 27648 atoms

Performance: 16.985 ns/day, 1.413 hours/ns, 196.589 timesteps/s
98.9% CPU use with 160 MPI tasks x 1 OpenMP threads

MPI task timing breakdown:
Section |  min time  |  avg time  |  max time  |%varavg| %total
---------------------------------------------------------------
Pair    | 16613      | 17288      | 18149      | 264.5 | 21.24
Kspace  | 47411      | 48360      | 49066      | 175.5 | 59.42
Neigh   | 770.87     | 795.31     | 845.35     |  56.8 |  0.98
Comm    | 11484      | 12038      | 12580      | 180.4 | 14.79
Output  | 793.99     | 794.02     | 794.04     |   0.0 |  0.98
Modify  | 1593.4     | 1895.4     | 2309.4     | 400.6 |  2.33
Other   |            | 217.3      |            |       |  0.27

Nlocal:    172.8 ave 186 max 158 min
Histogram: 5 2 11 26 24 25 35 21 7 4
Nghost:    3384.69 ave 3448 max 3328 min
Histogram: 2 7 27 30 29 23 12 19 6 5
Neighs:    39641.5 ave 43265 max 35088 min
Histogram: 2 3 8 17 31 33 31 19 13 3

Total # of neighbors = 6342644
Ave neighs/atom = 229.407
Neighbor list builds = 571381
Dangerous builds = 0

# Final Commands
variable        final_energy equal etotal
print           "final_energy: ${'final_energy'}"
ERROR on proc 0: Substitution for illegal variable 'final_energy' (../input.cpp:553)
Last command: final_energy: ${'final_energy'
