 # Li459 Sc135 Cl864
 
        1458  atoms
           3  atom types
 
      0.000000000000      30.840885660000  xlo xhi
      0.000000000000      30.939923046133  ylo yhi
      0.000000000000      30.861307180606  zlo zhi
     -0.031743400295      -0.097772328915      -0.088471785690  xy xz yz
 
Masses
 
            1   6.94000000              # Li
            2   44.95591200             # Sc
            3   35.45000000             # Cl
 
Atoms # charge
 
         1    1   1.000000        3.797088530667       3.813445183849       9.084604418121
         2    1   1.000000        3.764497753710       3.783954588029      19.371707017399
         3    1   1.000000        3.731906977731       3.754463993094      29.658809308063
         4    1   1.000000        3.786507397341      14.126752762760       9.084604418121
         5    1   1.000000        3.753916620384      14.097262166941      19.371707017399
         6    1   1.000000        3.721325844405      14.067771572006      29.658809308063
         7    1   1.000000        3.775926264015      24.440060341672       9.084604418121
         8    1   1.000000        3.743335487058      24.410569745852      19.371707017399
         9    1   1.000000        3.710744711079      24.381079150917      29.658809308063
        10    1   1.000000       14.077383647864       3.813445183849       9.084604418121
        11    1   1.000000       14.044792870907       3.783954588029      19.371707017399
        12    1   1.000000       14.012202094928       3.754463993094      29.658809308063
        13    1   1.000000       14.066802514538      14.126752762760       9.084604418121
        14    1   1.000000       14.034211737581      14.097262166941      19.371707017399
        15    1   1.000000       14.001620961602      14.067771572006      29.658809308063
        16    1   1.000000       14.056221381212      24.440060341672       9.084604418121
        17    1   1.000000       14.023630604255      24.410569745852      19.371707017399
        18    1   1.000000       13.991039828276      24.381079150917      29.658809308063
        19    1   1.000000       24.357678765061       3.813445183849       9.084604418121
        20    1   1.000000       24.325087988104       3.783954588029      19.371707017399
        21    1   1.000000       24.292497212125       3.754463993094      29.658809308063
        22    1   1.000000       24.347097631735      14.126752762760       9.084604418121
        23    1   1.000000       24.314506854778      14.097262166941      19.371707017399
        24    1   1.000000       24.281916078799      14.067771572006      29.658809308063
        25    1   1.000000       24.336516498409      24.440060341672       9.084604418121
        26    1   1.000000       24.303925721452      24.410569745852      19.371707017399
        27    1   1.000000       24.271334945473      24.381079150917      29.658809308063
        28    1   1.000000        5.184972980790       7.733187381031       2.585850720492
        29    1   1.000000        5.152382203833       7.703696785212      12.872953319769
        30    1   1.000000        5.119791427854       7.674206190277      23.160055610434
        31    1   1.000000        5.174391847464      18.046494959943       2.585850720492
        32    1   1.000000        5.141801070507      18.017004364123      12.872953319769
        33    1   1.000000        5.109210294528      17.987513769188      23.160055610434
        34    1   1.000000        5.163810714138      28.359802538854       2.585850720492
        35    1   1.000000        5.131219937181      28.330311943034      12.872953319769
        36    1   1.000000        5.098629161202      28.300821348099      23.160055610434
        37    1   1.000000       15.465268097987       7.733187381031       2.585850720492
        38    1   1.000000       15.432677321030       7.703696785212      12.872953319769
        39    1   1.000000       15.400086545051       7.674206190277      23.160055610434
        40    1   1.000000       15.454686964661      18.046494959943       2.585850720492
        41    1   1.000000       15.422096187704      18.017004364123      12.872953319769
        42    1   1.000000       15.389505411725      17.987513769188      23.160055610434
        43    1   1.000000       15.444105831335      28.359802538854       2.585850720492
        44    1   1.000000       15.411515054378      28.330311943034      12.872953319769
        45    1   1.000000       15.378924278399      28.300821348099      23.160055610434
        46    1   1.000000       25.745563215184       7.733187381031       2.585850720492
        47    1   1.000000       25.712972438227       7.703696785212      12.872953319769
        48    1   1.000000       25.680381662248       7.674206190277      23.160055610434
        49    1   1.000000       25.734982081858      18.046494959943       2.585850720492
        50    1   1.000000       25.702391304901      18.017004364123      12.872953319769
        51    1   1.000000       25.669800528922      17.987513769188      23.160055610434
        52    1   1.000000       25.724400948532      28.359802538854       2.585850720492
        53    1   1.000000       25.691810171575      28.330311943034      12.872953319769
        54    1   1.000000       25.659219395596      28.300821348099      23.160055610434
        55    1   1.000000        2.654636600210       7.609826414026       5.315779305235
        56    1   1.000000        2.622045824231       7.580335819091      15.602881595899
        57    1   1.000000        2.589455047274       7.550845223271      25.889984195177
        58    1   1.000000        2.644055466567      17.923134302336       5.315779305235
        59    1   1.000000        2.611464690588      17.893643707401      15.602881595899
        60    1   1.000000        2.578873913631      17.864153111582      25.889984195177
        61    1   1.000000        2.633474333241      28.236441881248       5.315779305235
        62    1   1.000000        2.600883557262      28.206951286312      15.602881595899
        63    1   1.000000        2.568292780305      28.177460690493      25.889984195177
        64    1   1.000000       12.934931717407       7.609826414026       5.315779305235
        65    1   1.000000       12.902340941428       7.580335819091      15.602881595899
        66    1   1.000000       12.869750164471       7.550845223271      25.889984195177
        67    1   1.000000       12.924350583764      17.923134302336       5.315779305235
        68    1   1.000000       12.891759807785      17.893643707401      15.602881595899
        69    1   1.000000       12.859169030828      17.864153111582      25.889984195177
        70    1   1.000000       12.913769450438      28.236441881248       5.315779305235
        71    1   1.000000       12.881178674459      28.206951286312      15.602881595899
        72    1   1.000000       12.848587897502      28.177460690493      25.889984195177
        73    1   1.000000       23.215227143013       7.609826414026       5.315779305235
        74    1   1.000000       23.182636367034       7.580335819091      15.602881595899
        75    1   1.000000       23.150045590077       7.550845223271      25.889984195177
        76    1   1.000000       23.204646009370      17.923134302336       5.315779305235
        77    1   1.000000       23.172055233391      17.893643707401      15.602881595899
        78    1   1.000000       23.139464456434      17.864153111582      25.889984195177
        79    1   1.000000       23.194064876044      28.236441881248       5.315779305235
        80    1   1.000000       23.161474100065      28.206951286312      15.602881595899
        81    1   1.000000       23.128883323108      28.177460690493      25.889984195177
        82    1   1.000000        7.704786771717       5.097068526945       2.579689569126
        83    1   1.000000        7.672195995738       5.067577932010      12.866791859791
        84    1   1.000000        7.639605219759       5.038087337075      23.153894150455
        85    1   1.000000        7.694205638391      15.410376105856       2.579689569126
        86    1   1.000000        7.661614862412      15.380885510921      12.866791859791
        87    1   1.000000        7.629024086433      15.351394915986      23.153894150455
        88    1   1.000000        7.683624504748      25.723683994167       2.579689569126
        89    1   1.000000        7.651033728769      25.694193399232      12.866791859791
        90    1   1.000000        7.618442952789      25.664702804297      23.153894150455
        91    1   1.000000       17.985081888914       5.097068526945       2.579689569126
        92    1   1.000000       17.952491112935       5.067577932010      12.866791859791
        93    1   1.000000       17.919900336956       5.038087337075      23.153894150455
        94    1   1.000000       17.974500755588      15.410376105856       2.579689569126
        95    1   1.000000       17.941909979609      15.380885510921      12.866791859791
        96    1   1.000000       17.909319203630      15.351394915986      23.153894150455
        97    1   1.000000       17.963919621945      25.723683994167       2.579689569126
        98    1   1.000000       17.931328845966      25.694193399232      12.866791859791
        99    1   1.000000       17.898738069986      25.664702804297      23.153894150455
       100    1   1.000000       28.265377006111       5.097068526945       2.579689569126
       101    1   1.000000       28.232786230132       5.067577932010      12.866791859791
       102    1   1.000000       28.200195454153       5.038087337075      23.153894150455
       103    1   1.000000       28.254795872785      15.410376105856       2.579689569126
       104    1   1.000000       28.222205096806      15.380885510921      12.866791859791
       105    1   1.000000       28.189614320827      15.351394915986      23.153894150455
       106    1   1.000000       28.244214739142      25.723683994167       2.579689569126
       107    1   1.000000       28.211623963163      25.694193399232      12.866791859791
       108    1   1.000000       28.179033187183      25.664702804297      23.153894150455
       109    1   1.000000        5.183774860171       0.140759642987       5.203356809598
       110    1   1.000000        5.151184084191       0.111269048052      15.490459100262
       111    1   1.000000        5.118593308212       0.081778453117      25.777561390927
       112    1   1.000000        5.173193726845      10.454067221898       5.203356809598
       113    1   1.000000        5.140602950865      10.424576626963      15.490459100262
       114    1   1.000000        5.108012174886      10.395086032028      25.777561390927
       115    1   1.000000        5.162612593519      20.767374800810       5.203356809598
       116    1   1.000000        5.130021817539      20.737884205875      15.490459100262
       117    1   1.000000        5.097431041560      20.708393610940      25.777561390927
       118    1   1.000000       15.464069977368       0.140759642987       5.203356809598
       119    1   1.000000       15.431479201389       0.111269048052      15.490459100262
       120    1   1.000000       15.398888425409       0.081778453117      25.777561390927
       121    1   1.000000       15.453488844042      10.454067221898       5.203356809598
       122    1   1.000000       15.420898068063      10.424576626963      15.490459100262
       123    1   1.000000       15.388307292083      10.395086032028      25.777561390927
       124    1   1.000000       15.442907710716      20.767374800810       5.203356809598
       125    1   1.000000       15.410316934737      20.737884205875      15.490459100262
       126    1   1.000000       15.377726158757      20.708393610940      25.777561390927
       127    1   1.000000       25.744365094565       0.140759642987       5.203356809598
       128    1   1.000000       25.711774318586       0.111269048052      15.490459100262
       129    1   1.000000       25.679183542606       0.081778453117      25.777561390927
       130    1   1.000000       25.733783961239      10.454067221898       5.203356809598
       131    1   1.000000       25.701193185260      10.424576626963      15.490459100262
       132    1   1.000000       25.668602409280      10.395086032028      25.777561390927
       133    1   1.000000       25.723202827913      20.767374800810       5.203356809598
       134    1   1.000000       25.690612051934      20.737884205875      15.490459100262
       135    1   1.000000       25.658021275954      20.708393610940      25.777561390927
       136    1   1.000000        7.932106272745       7.960786376895       0.061455972667
       137    1   1.000000        7.899515496766       7.931295781960      10.348558263332
       138    1   1.000000        7.866924719809       7.901805186141      20.635660862609
       139    1   1.000000        7.921525139101      18.274094265206       0.061455972667
       140    1   1.000000        7.888934363122      18.244603670271      10.348558263332
       141    1   1.000000        7.856343586165      18.215113074451      20.635660862609
       142    1   1.000000        7.910944005775      28.587401844117       0.061455972667
       143    1   1.000000        7.878353229796      28.557911249182      10.348558263332
       144    1   1.000000        7.845762452839      28.528420653362      20.635660862609
       145    1   1.000000       18.212401698351       7.960786376895       0.061455972667
       146    1   1.000000       18.179810922371       7.931295781960      10.348558263332
       147    1   1.000000       18.147220145415       7.901805186141      20.635660862609
       148    1   1.000000       18.201820564707      18.274094265206       0.061455972667
       149    1   1.000000       18.169229788728      18.244603670271      10.348558263332
       150    1   1.000000       18.136639011771      18.215113074451      20.635660862609
       151    1   1.000000       18.191239431381      28.587401844117       0.061455972667
       152    1   1.000000       18.158648655402      28.557911249182      10.348558263332
       153    1   1.000000       18.126057878445      28.528420653362      20.635660862609
       154    1   1.000000       28.492696815548       7.960786376895       0.061455972667
       155    1   1.000000       28.460106039569       7.931295781960      10.348558263332
       156    1   1.000000       28.427515262612       7.901805186141      20.635660862609
       157    1   1.000000       28.482115681904      18.274094265206       0.061455972667
       158    1   1.000000       28.449524905925      18.244603670271      10.348558263332
       159    1   1.000000       28.416934128968      18.215113074451      20.635660862609
       160    1   1.000000       28.471534548578      28.587401844117       0.061455972667
       161    1   1.000000       28.438943772599      28.557911249182      10.348558263332
       162    1   1.000000       28.406352995642      28.528420653362      20.635660862609
       163    1   1.000000        5.167780131103       4.859885292629       5.197541304873
       164    1   1.000000        5.135189355123       4.830394697694      15.484643595537
       165    1   1.000000        5.102598579144       4.800904102759      25.771745886202
       166    1   1.000000        5.157198997777      15.173192871540       5.197541304873
       167    1   1.000000        5.124608221797      15.143702276605      15.484643595537
       168    1   1.000000        5.092017445818      15.114211681670      25.771745886202
       169    1   1.000000        5.146617864133      25.486500759851       5.197541304873
       170    1   1.000000        5.114027088154      25.457010164916      15.484643595537
       171    1   1.000000        5.081436312175      25.427519569981      25.771745886202
       172    1   1.000000       15.448075248300       4.859885292629       5.197541304873
       173    1   1.000000       15.415484472320       4.830394697694      15.484643595537
       174    1   1.000000       15.382893696341       4.800904102759      25.771745886202
       175    1   1.000000       15.437494114974      15.173192871540       5.197541304873
       176    1   1.000000       15.404903338994      15.143702276605      15.484643595537
       177    1   1.000000       15.372312563015      15.114211681670      25.771745886202
       178    1   1.000000       15.426912981330      25.486500759851       5.197541304873
       179    1   1.000000       15.394322205351      25.457010164916      15.484643595537
       180    1   1.000000       15.361731429372      25.427519569981      25.771745886202
       181    1   1.000000       25.728370365497       4.859885292629       5.197541304873
       182    1   1.000000       25.695779589517       4.830394697694      15.484643595537
       183    1   1.000000       25.663188813538       4.800904102759      25.771745886202
       184    1   1.000000       25.717789232171      15.173192871540       5.197541304873
       185    1   1.000000       25.685198456191      15.143702276605      15.484643595537
       186    1   1.000000       25.652607680212      15.114211681670      25.771745886202
       187    1   1.000000       25.707208098527      25.486500759851       5.197541304873
       188    1   1.000000       25.674617322548      25.457010164916      15.484643595537
       189    1   1.000000       25.642026546569      25.427519569981      25.771745886202
       190    1   1.000000        5.046903980333       7.717304379676       7.710097963876
       191    1   1.000000        5.014313203376       7.687813783856      17.997200563153
       192    1   1.000000        4.981722427397       7.658323188921      28.284302853818
       193    1   1.000000        5.036322846690      18.030612267986       7.710097963876
       194    1   1.000000        5.003732069733      18.001121672166      17.997200563153
       195    1   1.000000        4.971141293754      17.971631077231      28.284302853818
       196    1   1.000000        5.025741713364      28.343919846897       7.710097963876
       197    1   1.000000        4.993150936407      28.314429251077      17.997200563153
       198    1   1.000000        4.960560160428      28.284938656142      28.284302853818
       199    1   1.000000       15.327199405939       7.717304379676       7.710097963876
       200    1   1.000000       15.294608628982       7.687813783856      17.997200563153
       201    1   1.000000       15.262017853003       7.658323188921      28.284302853818
       202    1   1.000000       15.316618272296      18.030612267986       7.710097963876
       203    1   1.000000       15.284027495339      18.001121672166      17.997200563153
       204    1   1.000000       15.251436719360      17.971631077231      28.284302853818
       205    1   1.000000       15.306037138970      28.343919846897       7.710097963876
       206    1   1.000000       15.273446362013      28.314429251077      17.997200563153
       207    1   1.000000       15.240855586034      28.284938656142      28.284302853818
       208    1   1.000000       25.607494523136       7.717304379676       7.710097963876
       209    1   1.000000       25.574903746179       7.687813783856      17.997200563153
       210    1   1.000000       25.542312970200       7.658323188921      28.284302853818
       211    1   1.000000       25.596913389493      18.030612267986       7.710097963876
       212    1   1.000000       25.564322612536      18.001121672166      17.997200563153
       213    1   1.000000       25.531731836557      17.971631077231      28.284302853818
       214    1   1.000000       25.586332256167      28.343919846897       7.710097963876
       215    1   1.000000       25.553741479210      28.314429251077      17.997200563153
       216    1   1.000000       25.521150703231      28.284938656142      28.284302853818
       217    1   1.000000        2.405421579311       7.818714124207      10.115631930160
       218    1   1.000000        2.372830803332       7.789223529272      20.402734220824
       219    1   1.000000        2.340240027353       7.759732934337      30.689836511489
       220    1   1.000000        2.394840445985      18.132021703118      10.115631930160
       221    1   1.000000        2.362249670006      18.102531108183      20.402734220824
       222    1   1.000000        2.329658894027      18.073040513248      30.689836511489
       223    1   1.000000        2.384259312659      28.445329282029      10.115631930160
       224    1   1.000000        2.351668536680      28.415838687094      20.402734220824
       225    1   1.000000        2.319077760701      28.386348092159      30.689836511489
       226    1   1.000000       12.685716696508       7.818714124207      10.115631930160
       227    1   1.000000       12.653125920529       7.789223529272      20.402734220824
       228    1   1.000000       12.620535144550       7.759732934337      30.689836511489
       229    1   1.000000       12.675135563182      18.132021703118      10.115631930160
       230    1   1.000000       12.642544787203      18.102531108183      20.402734220824
       231    1   1.000000       12.609954011224      18.073040513248      30.689836511489
       232    1   1.000000       12.664554429856      28.445329282029      10.115631930160
       233    1   1.000000       12.631963653877      28.415838687094      20.402734220824
       234    1   1.000000       12.599372877898      28.386348092159      30.689836511489
       235    1   1.000000       22.966011813705       7.818714124207      10.115631930160
       236    1   1.000000       22.933421037726       7.789223529272      20.402734220824
       237    1   1.000000       22.900830261747       7.759732934337      30.689836511489
       238    1   1.000000       22.955430680379      18.132021703118      10.115631930160
       239    1   1.000000       22.922839904400      18.102531108183      20.402734220824
       240    1   1.000000       22.890249128421      18.073040513248      30.689836511489
       241    1   1.000000       22.944849547053      28.445329282029      10.115631930160
       242    1   1.000000       22.912258771074      28.415838687094      20.402734220824
       243    1   1.000000       22.879667995095      28.386348092159      30.689836511489
       244    1   1.000000        2.662133652442       2.563545680685       5.083957806860
       245    1   1.000000        2.629542876463       2.534055085750      15.371060097524
       246    1   1.000000        2.596952100484       2.504564490815      25.658162388189
       247    1   1.000000        2.651552519116      12.876853259596       5.083957806860
       248    1   1.000000        2.618961743137      12.847362664661      15.371060097524
       249    1   1.000000        2.586370967158      12.817872069726      25.658162388189
       250    1   1.000000        2.640971385790      23.190160838507       5.083957806860
       251    1   1.000000        2.608380609811      23.160670243572      15.371060097524
       252    1   1.000000        2.575789833832      23.131179648637      25.658162388189
       253    1   1.000000       12.942429078048       2.563545680685       5.083957806860
       254    1   1.000000       12.909838302069       2.534055085750      15.371060097524
       255    1   1.000000       12.877247526090       2.504564490815      25.658162388189
       256    1   1.000000       12.931847944722      12.876853259596       5.083957806860
       257    1   1.000000       12.899257168743      12.847362664661      15.371060097524
       258    1   1.000000       12.866666392764      12.817872069726      25.658162388189
       259    1   1.000000       12.921266811396      23.190160838507       5.083957806860
       260    1   1.000000       12.888676035417      23.160670243572      15.371060097524
       261    1   1.000000       12.856085259438      23.131179648637      25.658162388189
       262    1   1.000000       23.222724195245       2.563545680685       5.083957806860
       263    1   1.000000       23.190133419266       2.534055085750      15.371060097524
       264    1   1.000000       23.157542643287       2.504564490815      25.658162388189
       265    1   1.000000       23.212143061919      12.876853259596       5.083957806860
       266    1   1.000000       23.179552285940      12.847362664661      15.371060097524
       267    1   1.000000       23.146961509961      12.817872069726      25.658162388189
       268    1   1.000000       23.201561928593      23.190160838507       5.083957806860
       269    1   1.000000       23.168971152614      23.160670243572      15.371060097524
       270    1   1.000000       23.136380376635      23.131179648637      25.658162388189
       271    1   1.000000        7.818918708797       2.680423907077       0.169881929024
       272    1   1.000000        7.786327932818       2.650933312142      10.456984219688
       273    1   1.000000        7.753737156839       2.621442717207      20.744086510353
       274    1   1.000000        7.808337575471      12.993731485988       0.169881929024
       275    1   1.000000        7.775746799492      12.964240891053      10.456984219688
       276    1   1.000000        7.743156023513      12.934750296118      20.744086510353
       277    1   1.000000        7.797756441828      23.307039374298       0.169881929024
       278    1   1.000000        7.765165665849      23.277548779363      10.456984219688
       279    1   1.000000        7.732574889869      23.248058184428      20.744086510353
       280    1   1.000000       18.099214134403       2.680423907077       0.169881929024
       281    1   1.000000       18.066623358424       2.650933312142      10.456984219688
       282    1   1.000000       18.034032582445       2.621442717207      20.744086510353
       283    1   1.000000       18.088633001077      12.993731485988       0.169881929024
       284    1   1.000000       18.056042225098      12.964240891053      10.456984219688
       285    1   1.000000       18.023451449119      12.934750296118      20.744086510353
       286    1   1.000000       18.078051867434      23.307039374298       0.169881929024
       287    1   1.000000       18.045461091454      23.277548779363      10.456984219688
       288    1   1.000000       18.012870315475      23.248058184428      20.744086510353
       289    1   1.000000       28.379509251600       2.680423907077       0.169881929024
       290    1   1.000000       28.346918475621       2.650933312142      10.456984219688
       291    1   1.000000       28.314327699642       2.621442717207      20.744086510353
       292    1   1.000000       28.368928118274      12.993731485988       0.169881929024
       293    1   1.000000       28.336337342295      12.964240891053      10.456984219688
       294    1   1.000000       28.303746566316      12.934750296118      20.744086510353
       295    1   1.000000       28.358346984631      23.307039374298       0.169881929024
       296    1   1.000000       28.325756208651      23.277548779363      10.456984219688
       297    1   1.000000       28.293165432672      23.248058184428      20.744086510353
       298    1   1.000000        5.190483058852       2.571654693024       2.689184252551
       299    1   1.000000        5.157892281895       2.542164097205      12.976286851828
       300    1   1.000000        5.125301505916       2.512673502270      23.263389142493
       301    1   1.000000        5.179901925209      12.884962581335       2.689184252551
       302    1   1.000000        5.147311148252      12.855471985515      12.976286851828
       303    1   1.000000        5.114720372273      12.825981390580      23.263389142493
       304    1   1.000000        5.169320791883      23.198270160246       2.689184252551
       305    1   1.000000        5.136730014926      23.168779564426      12.976286851828
       306    1   1.000000        5.104139238947      23.139288969491      23.263389142493
       307    1   1.000000       15.470778176049       2.571654693024       2.689184252551
       308    1   1.000000       15.438187399092       2.542164097205      12.976286851828
       309    1   1.000000       15.405596623113       2.512673502270      23.263389142493
       310    1   1.000000       15.460197042406      12.884962581335       2.689184252551
       311    1   1.000000       15.427606265449      12.855471985515      12.976286851828
       312    1   1.000000       15.395015489470      12.825981390580      23.263389142493
       313    1   1.000000       15.449615909080      23.198270160246       2.689184252551
       314    1   1.000000       15.417025132123      23.168779564426      12.976286851828
       315    1   1.000000       15.384434356144      23.139288969491      23.263389142493
       316    1   1.000000       25.751073293247       2.571654693024       2.689184252551
       317    1   1.000000       25.718482516290       2.542164097205      12.976286851828
       318    1   1.000000       25.685891740310       2.512673502270      23.263389142493
       319    1   1.000000       25.740492159603      12.884962581335       2.689184252551
       320    1   1.000000       25.707901382646      12.855471985515      12.976286851828
       321    1   1.000000       25.675310606667      12.825981390580      23.263389142493
       322    1   1.000000       25.729911026277      23.198270160246       2.689184252551
       323    1   1.000000       25.697320249320      23.168779564426      12.976286851828
       324    1   1.000000       25.664729473341      23.139288969491      23.263389142493