       N       E                     dE             d eps       ncg     rms          rms(c)
DAV:   1     0.481847191806E+04    0.48185E+04   -0.15064E+05  3208   0.188E+03
DAV:   2     0.614002195191E+03   -0.42045E+04   -0.40831E+04  3512   0.512E+02
DAV:   3    -0.131179719100E+03   -0.74518E+03   -0.70048E+03  4376   0.206E+02
DAV:   4    -0.232802331689E+03   -0.10162E+03   -0.10120E+03  5344   0.850E+01
DAV:   5    -0.245304266003E+03   -0.12502E+02   -0.12472E+02  6296   0.322E+01    0.265E+01
DAV:   6    -0.233989450893E+03    0.11315E+02   -0.55028E+01  5608   0.271E+01    0.132E+01
DAV:   7    -0.233758129555E+03    0.23132E+00   -0.11235E+01  6016   0.101E+01    0.658E+00
DAV:   8    -0.233809779845E+03   -0.51650E-01   -0.22022E+00  5456   0.519E+00    0.260E+00
DAV:   9    -0.233799640334E+03    0.10140E-01   -0.40728E-01  5312   0.286E+00    0.152E+00
DAV:  10    -0.233790123615E+03    0.95167E-02   -0.11189E-01  5448   0.174E+00    0.711E-01
DAV:  11    -0.233787548845E+03    0.25748E-02   -0.24024E-02  5288   0.701E-01    0.227E-01
DAV:  12    -0.233788333596E+03   -0.78475E-03   -0.79279E-03  6176   0.293E-01    0.160E-01
DAV:  13    -0.233788427330E+03   -0.93734E-04   -0.20478E-03  4912   0.228E-01    0.798E-02
DAV:  14    -0.233788486623E+03   -0.59293E-04   -0.77445E-04  5776   0.831E-02    0.409E-02
DAV:  15    -0.233788497342E+03   -0.10719E-04   -0.11849E-04  5744   0.325E-02    0.170E-02
DAV:  16    -0.233788503643E+03   -0.63009E-05   -0.45878E-05  3840   0.239E-02    0.132E-02
DAV:  17    -0.233788504666E+03   -0.10230E-05   -0.32643E-05  5072   0.134E-02    0.109E-02
DAV:  18    -0.233788505038E+03   -0.37199E-06   -0.56941E-06  3544   0.599E-03
   1 F= -.23378851E+03 E0= -.23378851E+03  d E =-.233789E+03
       N       E                     dE             d eps       ncg     rms          rms(c)
DAV:   1    -0.233651694747E+03    0.13681E+00   -0.18704E+01  3776   0.215E+01    0.221E+00
DAV:   2    -0.233905810056E+03   -0.25412E+00   -0.34162E+00  3896   0.463E+00    0.104E+00
DAV:   3    -0.233903195067E+03    0.26150E-02   -0.17865E-01  5256   0.125E+00    0.720E-01
DAV:   4    -0.233898601629E+03    0.45934E-02   -0.16419E-02  5184   0.400E-01    0.304E-01
DAV:   5    -0.233897782259E+03    0.81937E-03   -0.43298E-03  4904   0.162E-01    0.150E-01
DAV:   6    -0.233897734485E+03    0.47774E-04   -0.68810E-04  5720   0.885E-02    0.125E-01
DAV:   7    -0.233897709264E+03    0.25221E-04   -0.29603E-04  5080   0.449E-02    0.430E-02
DAV:   8    -0.233897693472E+03    0.15792E-04   -0.50555E-05  5592   0.191E-02    0.232E-02
DAV:   9    -0.233897690861E+03    0.26109E-05   -0.20088E-05  4296   0.108E-02    0.869E-03
DAV:  10    -0.233897690909E+03   -0.48312E-07   -0.26783E-06  2464   0.550E-03
   2 F= -.23389769E+03 E0= -.23389769E+03  d E =-.109186E+00
       N       E                     dE             d eps       ncg     rms          rms(c)
DAV:   1    -0.233883572183E+03    0.14119E-01   -0.14547E+00  3696   0.601E+00    0.608E-01
DAV:   2    -0.233904821276E+03   -0.21249E-01   -0.28010E-01  4088   0.132E+00    0.305E-01
DAV:   3    -0.233904263881E+03    0.55740E-03   -0.12503E-02  5144   0.332E-01    0.201E-01
DAV:   4    -0.233903854097E+03    0.40978E-03   -0.13589E-03  4992   0.108E-01    0.857E-02
DAV:   5    -0.233903778304E+03    0.75792E-04   -0.31603E-04  5088   0.456E-02    0.437E-02
DAV:   6    -0.233903766025E+03    0.12279E-04   -0.50963E-05  5696   0.228E-02    0.320E-02
DAV:   7    -0.233903759699E+03    0.63266E-05   -0.18370E-05  4936   0.117E-02    0.111E-02
DAV:   8    -0.233903756752E+03    0.29467E-05   -0.20011E-06  2352   0.534E-03    0.654E-03
DAV:   9    -0.233903756328E+03    0.42366E-06   -0.23904E-06  2424   0.556E-03
   3 F= -.23390376E+03 E0= -.23390376E+03  d E =-.115251E+00
       N       E                     dE             d eps       ncg     rms          rms(c)
DAV:   1    -0.233882262706E+03    0.21494E-01   -0.12935E+01  3328   0.116E+01    0.107E+00
DAV:   2    -0.233960259965E+03   -0.77997E-01   -0.90802E-01  4384   0.287E+00    0.537E-01
DAV:   3    -0.233959910606E+03    0.34936E-03   -0.39734E-02  5784   0.583E-01    0.405E-01
DAV:   4    -0.233959133575E+03    0.77703E-03   -0.37929E-03  5544   0.197E-01    0.182E-01
DAV:   5    -0.233958810803E+03    0.32277E-03   -0.15322E-03  4992   0.107E-01    0.624E-02
DAV:   6    -0.233958839114E+03   -0.28311E-04   -0.28139E-04  4712   0.393E-02    0.506E-02
DAV:   7    -0.233958847579E+03   -0.84650E-05   -0.59782E-05  5592   0.188E-02    0.235E-02
DAV:   8    -0.233958852371E+03   -0.47918E-05   -0.10858E-05  4400   0.972E-03    0.131E-02
DAV:   9    -0.233958853045E+03   -0.67463E-06   -0.27435E-06  2528   0.587E-03
   4 F= -.23395885E+03 E0= -.23395885E+03  d E =-.550967E-01
       N       E                     dE             d eps       ncg     rms          rms(c)
DAV:   1    -0.233870012943E+03    0.88839E-01   -0.20202E+01  3328   0.145E+01    0.134E+00
DAV:   2    -0.233994789103E+03   -0.12478E+00   -0.14521E+00  4352   0.358E+00    0.678E-01
DAV:   3    -0.233994355161E+03    0.43394E-03   -0.64330E-02  5744   0.730E-01    0.514E-01
DAV:   4    -0.233993078638E+03    0.12765E-02   -0.60508E-03  5552   0.249E-01    0.238E-01
DAV:   5    -0.233992497154E+03    0.58148E-03   -0.26077E-03  5016   0.139E-01    0.797E-02
DAV:   6    -0.233992541574E+03   -0.44420E-04   -0.47700E-04  4720   0.506E-02    0.651E-02
DAV:   7    -0.233992552395E+03   -0.10820E-04   -0.91753E-05  5720   0.236E-02    0.320E-02
DAV:   8    -0.233992558826E+03   -0.64317E-05   -0.20213E-05  4984   0.129E-02    0.168E-02
DAV:   9    -0.233992559784E+03   -0.95730E-06   -0.61268E-06  3960   0.737E-03
   5 F= -.23399256E+03 E0= -.23399256E+03  d E =-.888035E-01
       N       E                     dE             d eps       ncg     rms          rms(c)
DAV:   1    -0.233451579076E+03    0.54098E+00   -0.80057E+01  3328   0.291E+01    0.278E+00
DAV:   2    -0.233975565975E+03   -0.52399E+00   -0.60911E+00  4352   0.718E+00    0.135E+00
DAV:   3    -0.233983827284E+03   -0.82613E-02   -0.35404E-01  5784   0.154E+00    0.101E+00
DAV:   4    -0.233978836189E+03    0.49911E-02   -0.28610E-02  5520   0.534E-01    0.478E-01
DAV:   5    -0.233976391384E+03    0.24448E-02   -0.10010E-02  5032   0.282E-01    0.167E-01
DAV:   6    -0.233976574251E+03   -0.18287E-03   -0.21202E-03  5184   0.103E-01    0.127E-01
DAV:   7    -0.233976610182E+03   -0.35931E-04   -0.33060E-04  5832   0.478E-02    0.601E-02
DAV:   8    -0.233976627193E+03   -0.17011E-04   -0.57566E-05  4816   0.233E-02    0.299E-02
DAV:   9    -0.233976630025E+03   -0.28313E-05   -0.25527E-05  5504   0.135E-02    0.141E-02
DAV:  10    -0.233976631208E+03   -0.11829E-05   -0.63784E-06  3776   0.683E-03    0.102E-02
DAV:  11    -0.233976631143E+03    0.64880E-07   -0.89204E-07  2048   0.356E-03
   6 F= -.23397663E+03 E0= -.23397663E+03  d E =-.728748E-01
       N       E                     dE             d eps       ncg     rms          rms(c)
DAV:   1    -0.233785115950E+03    0.19152E+00   -0.34084E+01  3328   0.189E+01    0.173E+00
DAV:   2    -0.234001437022E+03   -0.21632E+00   -0.25038E+00  4192   0.469E+00    0.901E-01
DAV:   3    -0.234002743707E+03   -0.13067E-02   -0.12780E-01  5760   0.998E-01    0.703E-01
DAV:   4    -0.234000513375E+03    0.22303E-02   -0.11150E-02  5536   0.360E-01    0.345E-01
DAV:   5    -0.233999087691E+03    0.14257E-02   -0.52113E-03  4808   0.191E-01    0.113E-01
DAV:   6    -0.233999185946E+03   -0.98256E-04   -0.14612E-03  5216   0.842E-02    0.847E-02
DAV:   7    -0.233999188065E+03   -0.21184E-05   -0.18012E-04  6240   0.339E-02    0.496E-02
DAV:   8    -0.233999182319E+03    0.57454E-05   -0.20747E-05  5224   0.143E-02    0.216E-02
DAV:   9    -0.233999179835E+03    0.24846E-05   -0.55121E-06  3496   0.825E-03    0.868E-03
DAV:  10    -0.233999179537E+03    0.29742E-06   -0.29048E-06  2600   0.518E-03
   7 F= -.23399918E+03 E0= -.23399918E+03  d E =-.954232E-01
       N       E                     dE             d eps       ncg     rms          rms(c)
DAV:   1    -0.233988633777E+03    0.10546E-01   -0.85999E+00  3480   0.988E+00    0.858E-01
DAV:   2    -0.234040786476E+03   -0.52153E-01   -0.62994E-01  4208   0.220E+00    0.365E-01
DAV:   3    -0.234040486969E+03    0.29951E-03   -0.28990E-02  5832   0.484E-01    0.299E-01
DAV:   4    -0.234039823566E+03    0.66340E-03   -0.26388E-03  5456   0.174E-01    0.132E-01
DAV:   5    -0.234039592653E+03    0.23091E-03   -0.95127E-04  5000   0.800E-02    0.537E-02
DAV:   6    -0.234039593315E+03   -0.66213E-06   -0.17265E-04  5528   0.314E-02    0.376E-02
DAV:   7    -0.234039590247E+03    0.30689E-05   -0.33191E-05  5528   0.150E-02    0.166E-02
DAV:   8    -0.234039587213E+03    0.30334E-05   -0.31693E-06  2896   0.729E-03    0.855E-03
DAV:   9    -0.234039586496E+03    0.71703E-06   -0.18940E-06  2008   0.626E-03
   8 F= -.23403959E+03 E0= -.23403959E+03  d E =-.404070E-01
       N       E                     dE             d eps       ncg     rms          rms(c)
DAV:   1    -0.233903900417E+03    0.13569E+00   -0.28998E+01  3456   0.181E+01    0.156E+00
DAV:   2    -0.234078431572E+03   -0.17453E+00   -0.21172E+00  4368   0.403E+00    0.694E-01
DAV:   3    -0.234077580425E+03    0.85115E-03   -0.99818E-02  5784   0.906E-01    0.573E-01
DAV:   4    -0.234075361074E+03    0.22194E-02   -0.91037E-03  5504   0.323E-01    0.260E-01
DAV:   5    -0.234074429115E+03    0.93196E-03   -0.33653E-03  4888   0.149E-01    0.101E-01
DAV:   6    -0.234074453756E+03   -0.24641E-04   -0.70468E-04  5600   0.615E-02    0.664E-02
DAV:   7    -0.234074453362E+03    0.39451E-06   -0.12132E-04  5992   0.290E-02    0.301E-02
DAV:   8    -0.234074449337E+03    0.40244E-05   -0.15130E-05  5360   0.132E-02    0.172E-02
DAV:   9    -0.234074448543E+03    0.79395E-06   -0.71005E-06  3976   0.786E-03
   9 F= -.23407445E+03 E0= -.23407445E+03  d E =-.752690E-01
       N       E                     dE             d eps       ncg     rms          rms(c)
DAV:   1    -0.234081406880E+03   -0.69575E-02   -0.24692E+00  3712   0.638E+00    0.835E-01
DAV:   2    -0.234093945669E+03   -0.12539E-01   -0.26450E-01  3872   0.138E+00    0.374E-01
DAV:   3    -0.234092335883E+03    0.16098E-02   -0.18534E-02  5512   0.390E-01    0.232E-01
DAV:   4    -0.234091855777E+03    0.48011E-03   -0.21713E-03  5480   0.171E-01    0.101E-01
DAV:   5    -0.234091789307E+03    0.66469E-04   -0.32675E-04  5304   0.511E-02    0.541E-02
DAV:   6    -0.234091766584E+03    0.22723E-04   -0.57183E-05  5944   0.299E-02    0.299E-02
DAV:   7    -0.234091755506E+03    0.11078E-04   -0.21597E-05  5776   0.133E-02    0.718E-03
DAV:   8    -0.234091754160E+03    0.13460E-05   -0.61111E-06  3840   0.720E-03    0.588E-03
DAV:   9    -0.234091754178E+03   -0.18023E-07   -0.14559E-06  1992   0.385E-03
  10 F= -.23409175E+03 E0= -.23409175E+03  d E =-.173056E-01
       N       E                     dE             d eps       ncg     rms          rms(c)
DAV:   1    -0.234088642422E+03    0.31117E-02   -0.21824E+00  3656   0.598E+00    0.782E-01
DAV:   2    -0.234100142289E+03   -0.11500E-01   -0.23781E-01  3840   0.131E+00    0.355E-01
DAV:   3    -0.234098683059E+03    0.14592E-02   -0.16679E-02  5432   0.372E-01    0.221E-01
DAV:   4    -0.234098251961E+03    0.43110E-03   -0.20393E-03  5504   0.166E-01    0.955E-02
DAV:   5    -0.234098191752E+03    0.60209E-04   -0.30152E-04  5344   0.493E-02    0.519E-02
DAV:   6    -0.234098170047E+03    0.21706E-04   -0.52206E-05  5936   0.285E-02    0.289E-02
DAV:   7    -0.234098158931E+03    0.11115E-04   -0.19721E-05  5592   0.127E-02    0.677E-03
DAV:   8    -0.234098157660E+03    0.12715E-05   -0.59373E-06  3912   0.703E-03    0.561E-03
DAV:   9    -0.234098157722E+03   -0.61922E-07   -0.13447E-06  1984   0.388E-03
  11 F= -.23409816E+03 E0= -.23409816E+03  d E =-.237092E-01
       N       E                     dE             d eps       ncg     rms          rms(c)
DAV:   1    -0.234095821036E+03    0.23366E-02   -0.25086E+00  3328   0.519E+00    0.505E-01
DAV:   2    -0.234111380759E+03   -0.15560E-01   -0.17335E-01  4224   0.129E+00    0.200E-01
DAV:   3    -0.234111313241E+03    0.67517E-04   -0.68001E-03  5752   0.256E-01    0.162E-01
DAV:   4    -0.234111201777E+03    0.11146E-03   -0.66184E-04  5760   0.755E-02    0.740E-02
DAV:   5    -0.234111129961E+03    0.71816E-04   -0.31096E-04  4856   0.474E-02    0.273E-02
DAV:   6    -0.234111138322E+03   -0.83613E-05   -0.10152E-04  4536   0.230E-02    0.196E-02
DAV:   7    -0.234111137046E+03    0.12766E-05   -0.17812E-05  4768   0.950E-03    0.108E-02
DAV:   8    -0.234111136914E+03    0.13140E-06   -0.42732E-06  3336   0.600E-03
  12 F= -.23411114E+03 E0= -.23411114E+03  d E =-.129792E-01
       N       E                     dE             d eps       ncg     rms          rms(c)
DAV:   1    -0.234049141440E+03    0.61996E-01   -0.12077E+01  3328   0.114E+01    0.110E+00
DAV:   2    -0.234124488057E+03   -0.75347E-01   -0.84001E-01  4232   0.283E+00    0.439E-01
DAV:   3    -0.234124350982E+03    0.13708E-03   -0.34855E-02  5808   0.571E-01    0.356E-01
DAV:   4    -0.234123829947E+03    0.52103E-03   -0.32626E-03  5696   0.175E-01    0.165E-01
DAV:   5    -0.234123457136E+03    0.37281E-03   -0.15775E-03  4696   0.107E-01    0.614E-02
DAV:   6    -0.234123503972E+03   -0.46836E-04   -0.54174E-04  4712   0.528E-02    0.435E-02
DAV:   7    -0.234123497473E+03    0.64993E-05   -0.92283E-05  5120   0.211E-02    0.248E-02
DAV:   8    -0.234123497749E+03   -0.27629E-06   -0.23725E-05  4104   0.134E-02    0.100E-02
DAV:   9    -0.234123496538E+03    0.12109E-05   -0.87020E-06  3968   0.817E-03    0.514E-03
DAV:  10    -0.234123496585E+03   -0.46977E-07   -0.17623E-06  2088   0.554E-03
  13 F= -.23412350E+03 E0= -.23412350E+03  d E =-.253389E-01
       N       E                     dE             d eps       ncg     rms          rms(c)
DAV:   1    -0.234109577073E+03    0.13919E-01   -0.38641E+00  3328   0.616E+00    0.659E-01
DAV:   2    -0.234134326030E+03   -0.24749E-01   -0.28257E-01  4168   0.170E+00    0.328E-01
DAV:   3    -0.234134008443E+03    0.31759E-03   -0.10834E-02  5696   0.335E-01    0.248E-01
DAV:   4    -0.234133671788E+03    0.33665E-03   -0.12558E-03  5712   0.104E-01    0.118E-01
DAV:   5    -0.234133544661E+03    0.12713E-03   -0.62462E-04  5024   0.663E-02    0.332E-02
DAV:   6    -0.234133556390E+03   -0.11729E-04   -0.11579E-04  4432   0.242E-02    0.313E-02
DAV:   7    -0.234133558232E+03   -0.18417E-05   -0.23997E-05  5528   0.110E-02    0.182E-02
DAV:   8    -0.234133559142E+03   -0.91024E-06   -0.28742E-06  2584   0.645E-03
  14 F= -.23413356E+03 E0= -.23413356E+03  d E =-.100626E-01
       N       E                     dE             d eps       ncg     rms          rms(c)
DAV:   1    -0.234119877251E+03    0.13681E-01   -0.26963E+00  3328   0.516E+00    0.555E-01
DAV:   2    -0.234137395562E+03   -0.17518E-01   -0.20001E-01  4160   0.141E+00    0.269E-01
DAV:   3    -0.234137149507E+03    0.24606E-03   -0.75472E-03  5704   0.279E-01    0.204E-01
DAV:   4    -0.234136910057E+03    0.23945E-03   -0.87838E-04  5696   0.864E-02    0.961E-02
DAV:   5    -0.234136820510E+03    0.89548E-04   -0.43804E-04  5040   0.557E-02    0.274E-02
DAV:   6    -0.234136829286E+03   -0.87767E-05   -0.82630E-05  4368   0.205E-02    0.262E-02
DAV:   7    -0.234136830848E+03   -0.15613E-05   -0.16667E-05  5024   0.932E-03    0.154E-02
DAV:   8    -0.234136831713E+03   -0.86557E-06   -0.20155E-06  2296   0.582E-03
  15 F= -.23413683E+03 E0= -.23413683E+03  d E =-.133351E-01
       N       E                     dE             d eps       ncg     rms          rms(c)
DAV:   1    -0.234122782328E+03    0.14049E-01   -0.54347E+00  3352   0.686E+00    0.691E-01
DAV:   2    -0.234150319323E+03   -0.27537E-01   -0.32048E-01  4368   0.175E+00    0.317E-01
DAV:   3    -0.234149913594E+03    0.40573E-03   -0.13256E-02  5800   0.343E-01    0.243E-01
DAV:   4    -0.234149544308E+03    0.36929E-03   -0.15420E-03  5592   0.124E-01    0.105E-01
DAV:   5    -0.234149400395E+03    0.14391E-03   -0.57389E-04  5104   0.648E-02    0.345E-02
DAV:   6    -0.234149403073E+03   -0.26777E-05   -0.11441E-04  4888   0.248E-02    0.302E-02
DAV:   7    -0.234149401132E+03    0.19408E-05   -0.17633E-05  5552   0.953E-03    0.151E-02
DAV:   8    -0.234149398777E+03    0.23544E-05   -0.13101E-06  2320   0.547E-03    0.757E-03
DAV:   9    -0.234149397816E+03    0.96149E-06   -0.13078E-06  1984   0.526E-03
  16 F= -.23414940E+03 E0= -.23414940E+03  d E =-.125661E-01
       N       E                     dE             d eps       ncg     rms          rms(c)
DAV:   1    -0.234129829652E+03    0.19569E-01   -0.53763E+00  3336   0.682E+00    0.681E-01
DAV:   2    -0.234156743718E+03   -0.26914E-01   -0.31340E-01  4400   0.175E+00    0.316E-01
DAV:   3    -0.234156359040E+03    0.38468E-03   -0.13101E-02  5840   0.339E-01    0.241E-01
DAV:   4    -0.234156002428E+03    0.35661E-03   -0.15244E-03  5592   0.123E-01    0.104E-01
DAV:   5    -0.234155862811E+03    0.13962E-03   -0.55445E-04  5120   0.638E-02    0.344E-02
DAV:   6    -0.234155865201E+03   -0.23899E-05   -0.11049E-04  4912   0.243E-02    0.295E-02
DAV:   7    -0.234155863294E+03    0.19070E-05   -0.17302E-05  5504   0.951E-03    0.147E-02
DAV:   8    -0.234155861040E+03    0.22540E-05   -0.12569E-06  2312   0.538E-03    0.743E-03
DAV:   9    -0.234155860090E+03    0.94996E-06   -0.12576E-06  1984   0.521E-03
  17 F= -.23415586E+03 E0= -.23415586E+03  d E =-.190284E-01
       N       E                     dE             d eps       ncg     rms          rms(c)
DAV:   1    -0.234150932178E+03    0.49289E-02   -0.11873E+00  3328   0.321E+00    0.318E-01
DAV:   2    -0.234156780774E+03   -0.58486E-02   -0.68155E-02  4408   0.823E-01    0.146E-01
DAV:   3    -0.234156681834E+03    0.98940E-04   -0.27403E-03  5752   0.160E-01    0.111E-01
DAV:   4    -0.234156604818E+03    0.77016E-04   -0.33880E-04  5672   0.566E-02    0.472E-02
DAV:   5    -0.234156574041E+03    0.30776E-04   -0.11485E-04  5192   0.291E-02    0.161E-02
DAV:   6    -0.234156572765E+03    0.12767E-05   -0.22590E-05  4720   0.111E-02    0.136E-02
DAV:   7    -0.234156571564E+03    0.12012E-05   -0.20568E-06  2352   0.457E-03    0.740E-03
DAV:   8    -0.234156570585E+03    0.97891E-06   -0.91635E-07  2024   0.494E-03
  18 F= -.23415657E+03 E0= -.23415657E+03  d E =-.197389E-01
       N       E                     dE             d eps       ncg     rms          rms(c)
DAV:   1    -0.234134543996E+03    0.22028E-01   -0.62559E+00  3328   0.734E+00    0.649E-01
DAV:   2    -0.234166106821E+03   -0.31563E-01   -0.35868E-01  4376   0.173E+00    0.281E-01
DAV:   3    -0.234166148987E+03   -0.42167E-04   -0.15594E-02  5840   0.344E-01    0.226E-01
DAV:   4    -0.234165936000E+03    0.21299E-03   -0.13023E-03  5704   0.116E-01    0.110E-01
DAV:   5    -0.234165776638E+03    0.15936E-03   -0.68403E-04  4896   0.684E-02    0.395E-02
DAV:   6    -0.234165787494E+03   -0.10856E-04   -0.15606E-04  4560   0.273E-02    0.268E-02
DAV:   7    -0.234165786699E+03    0.79521E-06   -0.31322E-05  5656   0.126E-02    0.136E-02
DAV:   8    -0.234165785532E+03    0.11669E-05   -0.25112E-06  2792   0.583E-03    0.663E-03
DAV:   9    -0.234165784785E+03    0.74686E-06   -0.83915E-07  2048   0.434E-03
  19 F= -.23416578E+03 E0= -.23416578E+03  d E =-.921420E-02
       N       E                     dE             d eps       ncg     rms          rms(c)
DAV:   1    -0.234156412774E+03    0.93728E-02   -0.22934E+00  3328   0.445E+00    0.388E-01
DAV:   2    -0.234167801193E+03   -0.11388E-01   -0.12948E-01  4376   0.105E+00    0.170E-01
DAV:   3    -0.234167773962E+03    0.27231E-04   -0.52336E-03  5768   0.207E-01    0.136E-01
DAV:   4    -0.234167699282E+03    0.74680E-04   -0.48552E-04  5768   0.691E-02    0.654E-02
DAV:   5    -0.234167642701E+03    0.56581E-04   -0.24053E-04  4936   0.406E-02    0.235E-02
DAV:   6    -0.234167644994E+03   -0.22933E-05   -0.51483E-05  4192   0.159E-02    0.160E-02
DAV:   7    -0.234167644059E+03    0.93490E-06   -0.10641E-05  4776   0.783E-03    0.818E-03
DAV:   8    -0.234167643192E+03    0.86698E-06   -0.88240E-07  2080   0.399E-03
  20 F= -.23416764E+03 E0= -.23416764E+03  d E =-.110726E-01
       N       E                     dE             d eps       ncg     rms          rms(c)
DAV:   1    -0.234163112190E+03    0.45319E-02   -0.20775E+00  3328   0.461E+00    0.387E-01
DAV:   2    -0.234174844136E+03   -0.11732E-01   -0.13122E-01  4352   0.108E+00    0.160E-01
DAV:   3    -0.234174836749E+03    0.73872E-05   -0.53324E-03  5808   0.219E-01    0.128E-01
DAV:   4    -0.234174769272E+03    0.67477E-04   -0.45441E-04  5680   0.650E-02    0.613E-02
DAV:   5    -0.234174718446E+03    0.50826E-04   -0.23150E-04  4752   0.411E-02    0.233E-02
DAV:   6    -0.234174724805E+03   -0.63591E-05   -0.68753E-05  4608   0.187E-02    0.181E-02
DAV:   7    -0.234174724637E+03    0.16870E-06   -0.15693E-05  4544   0.895E-03    0.898E-03
DAV:   8    -0.234174725281E+03   -0.64456E-06   -0.27604E-06  2688   0.553E-03
  21 F= -.23417473E+03 E0= -.23417473E+03  d E =-.708209E-02
       N       E                     dE             d eps       ncg     rms          rms(c)
DAV:   1    -0.234158636613E+03    0.16088E-01   -0.34092E+00  3328   0.590E+00    0.493E-01
DAV:   2    -0.234178012890E+03   -0.19376E-01   -0.21675E-01  4320   0.140E+00    0.207E-01
DAV:   3    -0.234178035775E+03   -0.22885E-04   -0.90308E-03  5752   0.284E-01    0.166E-01
DAV:   4    -0.234177921914E+03    0.11386E-03   -0.77449E-04  5680   0.849E-02    0.805E-02
DAV:   5    -0.234177833702E+03    0.88212E-04   -0.40299E-04  4864   0.542E-02    0.301E-02
DAV:   6    -0.234177844165E+03   -0.10463E-04   -0.11557E-04  4648   0.241E-02    0.237E-02
DAV:   7    -0.234177843613E+03    0.55117E-06   -0.25740E-05  4872   0.114E-02    0.121E-02
DAV:   8    -0.234177844542E+03   -0.92856E-06   -0.45616E-06  3416   0.671E-03
  22 F= -.23417784E+03 E0= -.23417784E+03  d E =-.102013E-01
       N       E                     dE             d eps       ncg     rms          rms(c)
DAV:   1    -0.234174067594E+03    0.37760E-02   -0.16026E+00  3328   0.375E+00    0.348E-01
DAV:   2    -0.234182486029E+03   -0.84184E-02   -0.94187E-02  4336   0.936E-01    0.152E-01
DAV:   3    -0.234182428652E+03    0.57377E-04   -0.38595E-03  5720   0.182E-01    0.120E-01
DAV:   4    -0.234182367708E+03    0.60944E-04   -0.36334E-04  5808   0.573E-02    0.567E-02
DAV:   5    -0.234182317097E+03    0.50612E-04   -0.19052E-04  4648   0.373E-02    0.191E-02
DAV:   6    -0.234182321496E+03   -0.43987E-05   -0.64531E-05  4592   0.180E-02    0.151E-02
DAV:   7    -0.234182320406E+03    0.10898E-05   -0.81788E-06  4008   0.654E-03    0.875E-03
DAV:   8    -0.234182319864E+03    0.54194E-06   -0.13126E-06  2216   0.417E-03
  23 F= -.23418232E+03 E0= -.23418232E+03  d E =-.447532E-02
       N       E                     dE             d eps       ncg     rms          rms(c)
DAV:   1    -0.234126494908E+03    0.55825E-01   -0.10852E+01  3328   0.983E+00    0.918E-01
DAV:   2    -0.234184169976E+03   -0.57675E-01   -0.64528E-01  4376   0.244E+00    0.394E-01
DAV:   3    -0.234184237826E+03   -0.67850E-04   -0.30361E-02  5776   0.478E-01    0.312E-01
DAV:   4    -0.234183839458E+03    0.39837E-03   -0.25216E-03  5720   0.154E-01    0.151E-01
DAV:   5    -0.234183489085E+03    0.35037E-03   -0.13181E-03  4744   0.981E-02    0.525E-02
DAV:   6    -0.234183524473E+03   -0.35388E-04   -0.45190E-04  4696   0.468E-02    0.381E-02
DAV:   7    -0.234183519663E+03    0.48100E-05   -0.66137E-05  5448   0.180E-02    0.217E-02
DAV:   8    -0.234183518132E+03    0.15308E-05   -0.11115E-05  4248   0.968E-03    0.930E-03
DAV:   9    -0.234183516705E+03    0.14267E-05   -0.62467E-06  3712   0.748E-03    0.340E-03
DAV:  10    -0.234183516818E+03   -0.11251E-06   -0.21180E-06  2160   0.472E-03
  24 F= -.23418352E+03 E0= -.23418352E+03  d E =-.567228E-02
       N       E                     dE             d eps       ncg     rms          rms(c)
DAV:   1    -0.234175211396E+03    0.83053E-02   -0.19051E+00  3328   0.412E+00    0.391E-01
DAV:   2    -0.234185170913E+03   -0.99595E-02   -0.11155E-01  4352   0.103E+00    0.164E-01
DAV:   3    -0.234185099391E+03    0.71522E-04   -0.45120E-03  5720   0.197E-01    0.128E-01
DAV:   4    -0.234185028962E+03    0.70429E-04   -0.42245E-04  5752   0.610E-02    0.591E-02
DAV:   5    -0.234184980630E+03    0.48333E-04   -0.19914E-04  4832   0.379E-02    0.203E-02
DAV:   6    -0.234184986684E+03   -0.60543E-05   -0.62236E-05  4592   0.174E-02    0.156E-02
DAV:   7    -0.234184986854E+03   -0.17024E-06   -0.98436E-06  4312   0.718E-03
  25 F= -.23418499E+03 E0= -.23418499E+03  d E =-.714231E-02
       N       E                     dE             d eps       ncg     rms          rms(c)
DAV:   1    -0.234180092238E+03    0.48944E-02   -0.20308E+00  3328   0.411E+00    0.359E-01
DAV:   2    -0.234190013867E+03   -0.99216E-02   -0.11056E-01  4296   0.100E+00    0.156E-01
DAV:   3    -0.234190025072E+03   -0.11205E-04   -0.43346E-03  5776   0.190E-01    0.124E-01
DAV:   4    -0.234189948237E+03    0.76835E-04   -0.38224E-04  5704   0.577E-02    0.590E-02
DAV:   5    -0.234189906538E+03    0.41699E-04   -0.20759E-04  4736   0.380E-02    0.181E-02
DAV:   6    -0.234189910591E+03   -0.40527E-05   -0.48661E-05  4520   0.163E-02    0.166E-02
DAV:   7    -0.234189909903E+03    0.68811E-06   -0.72873E-06  4064   0.623E-03
  26 F= -.23418991E+03 E0= -.23418991E+03  d E =-.492305E-02
       N       E                     dE             d eps       ncg     rms          rms(c)
DAV:   1    -0.234144499026E+03    0.45412E-01   -0.11050E+01  3392   0.958E+00    0.838E-01
DAV:   2    -0.234195447666E+03   -0.50949E-01   -0.57632E-01  4360   0.226E+00    0.356E-01
DAV:   3    -0.234195773095E+03   -0.32543E-03   -0.25995E-02  5816   0.449E-01    0.290E-01
DAV:   4    -0.234195328687E+03    0.44441E-03   -0.21839E-03  5704   0.136E-01    0.143E-01
DAV:   5    -0.234195052876E+03    0.27581E-03   -0.11562E-03  4720   0.898E-02    0.461E-02
DAV:   6    -0.234195083668E+03   -0.30792E-04   -0.32573E-04  4880   0.400E-02    0.371E-02
DAV:   7    -0.234195082672E+03    0.99655E-06   -0.47708E-05  5720   0.158E-02    0.195E-02
DAV:   8    -0.234195082187E+03    0.48412E-06   -0.48903E-06  3144   0.701E-03
  27 F= -.23419508E+03 E0= -.23419508E+03  d E =-.100953E-01
       N       E                     dE             d eps       ncg     rms          rms(c)
DAV:   1    -0.234191541101E+03    0.35416E-02   -0.20423E+00  3328   0.394E+00    0.307E-01
DAV:   2    -0.234200094328E+03   -0.85532E-02   -0.94353E-02  4352   0.878E-01    0.129E-01
DAV:   3    -0.234200169117E+03   -0.74789E-04   -0.38510E-03  5816   0.167E-01    0.100E-01
DAV:   4    -0.234200132466E+03    0.36651E-04   -0.28741E-04  5688   0.497E-02    0.487E-02
DAV:   5    -0.234200108161E+03    0.24305E-04   -0.14571E-04  4600   0.328E-02    0.157E-02
DAV:   6    -0.234200112996E+03   -0.48353E-05   -0.40993E-05  4424   0.148E-02    0.144E-02
DAV:   7    -0.234200112793E+03    0.20326E-06   -0.59231E-06  3664   0.601E-03
  28 F= -.23420011E+03 E0= -.23420011E+03  d E =-.503061E-02
       N       E                     dE             d eps       ncg     rms          rms(c)
DAV:   1    -0.234151391933E+03    0.48721E-01   -0.11901E+01  3328   0.952E+00    0.770E-01
DAV:   2    -0.234204397934E+03   -0.53006E-01   -0.58620E-01  4296   0.214E+00    0.313E-01
DAV:   3    -0.234205994010E+03   -0.15961E-02   -0.34029E-02  5848   0.420E-01    0.249E-01
DAV:   4    -0.234205751043E+03    0.24297E-03   -0.18465E-03  5632   0.129E-01    0.129E-01
DAV:   5    -0.234205550927E+03    0.20012E-03   -0.86174E-04  4640   0.795E-02    0.466E-02
DAV:   6    -0.234205590948E+03   -0.40021E-04   -0.37140E-04  4816   0.386E-02    0.335E-02
DAV:   7    -0.234205589263E+03    0.16850E-05   -0.52525E-05  5096   0.166E-02    0.202E-02
DAV:   8    -0.234205592052E+03   -0.27888E-05   -0.11394E-05  3896   0.912E-03    0.943E-03
DAV:   9    -0.234205591822E+03    0.23011E-06   -0.49424E-06  3040   0.664E-03
  29 F= -.23420559E+03 E0= -.23420559E+03  d E =-.105096E-01
       N       E                     dE             d eps       ncg     rms          rms(c)
DAV:   1    -0.234202171481E+03    0.34206E-02   -0.23455E+00  3328   0.420E+00    0.301E-01
DAV:   2    -0.234211172081E+03   -0.90006E-02   -0.97557E-02  4280   0.867E-01    0.115E-01
DAV:   3    -0.234211298700E+03   -0.12662E-03   -0.41662E-03  5824   0.168E-01    0.914E-02
DAV:   4    -0.234211283484E+03    0.15216E-04   -0.29319E-04  5808   0.512E-02    0.435E-02
DAV:   5    -0.234211266694E+03    0.16789E-04   -0.11787E-04  4768   0.297E-02    0.159E-02
DAV:   6    -0.234211271458E+03   -0.47638E-05   -0.38923E-05  4608   0.142E-02    0.126E-02
DAV:   7    -0.234211271431E+03    0.27580E-07   -0.76822E-06  3912   0.672E-03
  30 F= -.23421127E+03 E0= -.23421127E+03  d E =-.567961E-02
       N       E                     dE             d eps       ncg     rms          rms(c)
DAV:   1    -0.234127724980E+03    0.83546E-01   -0.20749E+01  3328   0.126E+01    0.943E-01
DAV:   2    -0.234216626327E+03   -0.88901E-01   -0.96711E-01  4296   0.257E+00    0.341E-01
DAV:   3    -0.234221323945E+03   -0.46976E-02   -0.71881E-02  5856   0.533E-01    0.287E-01
DAV:   4    -0.234221127460E+03    0.19649E-03   -0.32505E-03  5736   0.166E-01    0.149E-01
DAV:   5    -0.234220840645E+03    0.28681E-03   -0.10274E-03  4936   0.874E-02    0.665E-02
DAV:   6    -0.234220887525E+03   -0.46880E-04   -0.54046E-04  4776   0.510E-02    0.322E-02
DAV:   7    -0.234220896793E+03   -0.92681E-05   -0.19248E-04  5176   0.303E-02    0.220E-02
DAV:   8    -0.234220900964E+03   -0.41709E-05   -0.31005E-05  4424   0.148E-02    0.926E-03
DAV:   9    -0.234220901507E+03   -0.54285E-06   -0.51636E-06  3472   0.790E-03
  31 F= -.23422090E+03 E0= -.23422090E+03  d E =-.153097E-01
       N       E                     dE             d eps       ncg     rms          rms(c)
DAV:   1    -0.233701317910E+03    0.51958E+00   -0.78730E+01  3328   0.250E+01    0.209E+00
DAV:   2    -0.234167480276E+03   -0.46616E+00   -0.50658E+00  4336   0.519E+00    0.687E-01
DAV:   3    -0.234188459167E+03   -0.20979E-01   -0.30816E-01  5816   0.112E+00    0.586E-01
DAV:   4    -0.234187998879E+03    0.46029E-03   -0.21737E-02  5712   0.357E-01    0.327E-01
DAV:   5    -0.234186383909E+03    0.16150E-02   -0.37582E-03  5080   0.166E-01    0.159E-01
DAV:   6    -0.234186369494E+03    0.14415E-04   -0.23264E-03  4304   0.103E-01    0.605E-02
DAV:   7    -0.234186487076E+03   -0.11758E-03   -0.10208E-03  5792   0.677E-02    0.473E-02
DAV:   8    -0.234186495550E+03   -0.84734E-05   -0.13366E-04  4688   0.325E-02    0.246E-02
DAV:   9    -0.234186496867E+03   -0.13174E-05   -0.30610E-05  5752   0.119E-02    0.197E-02
DAV:  10    -0.234186497232E+03   -0.36449E-06   -0.15463E-05  3968   0.123E-02    0.888E-03
DAV:  11    -0.234186497315E+03   -0.83579E-07   -0.10270E-05  3832   0.724E-03    0.545E-03
DAV:  12    -0.234186497052E+03    0.26282E-06   -0.81208E-07  2064   0.288E-03
  32 F= -.23418650E+03 E0= -.23418650E+03  d E =0.190948E-01
       N       E                     dE             d eps       ncg     rms          rms(c)
DAV:   1    -0.233878118427E+03    0.30838E+00   -0.58957E+01  3328   0.215E+01    0.178E+00
DAV:   2    -0.234207230825E+03   -0.32911E+00   -0.35750E+00  4360   0.450E+00    0.611E-01
DAV:   3    -0.234223897030E+03   -0.16666E-01   -0.23506E-01  5880   0.965E-01    0.521E-01
DAV:   4    -0.234223780811E+03    0.11622E-03   -0.17711E-02  5752   0.297E-01    0.308E-01
DAV:   5    -0.234222368995E+03    0.14118E-02   -0.26578E-03  4992   0.142E-01    0.161E-01
DAV:   6    -0.234222282416E+03    0.86580E-04   -0.18056E-03  4232   0.108E-01    0.532E-02
DAV:   7    -0.234222392905E+03   -0.11049E-03   -0.11221E-03  5712   0.659E-02    0.452E-02
DAV:   8    -0.234222402628E+03   -0.97226E-05   -0.88416E-05  5152   0.227E-02    0.278E-02
DAV:   9    -0.234222405159E+03   -0.25317E-05   -0.14949E-05  4512   0.101E-02    0.166E-02
DAV:  10    -0.234222407635E+03   -0.24759E-05   -0.11105E-05  3624   0.101E-02    0.985E-03
DAV:  11    -0.234222408204E+03   -0.56836E-06   -0.10534E-05  3728   0.668E-03    0.562E-03
DAV:  12    -0.234222408031E+03    0.17228E-06   -0.12881E-06  2200   0.364E-03
  33 F= -.23422241E+03 E0= -.23422241E+03  d E =-.168162E-01
       N       E                     dE             d eps       ncg     rms          rms(c)
DAV:   1    -0.234177658788E+03    0.44749E-01   -0.94115E+00  3328   0.854E+00    0.610E-01
DAV:   2    -0.234215369171E+03   -0.37710E-01   -0.40832E-01  4288   0.175E+00    0.232E-01
DAV:   3    -0.234216237011E+03   -0.86784E-03   -0.20493E-02  5784   0.351E-01    0.184E-01
DAV:   4    -0.234216179433E+03    0.57578E-04   -0.13427E-03  5672   0.109E-01    0.888E-02
DAV:   5    -0.234216099668E+03    0.79765E-04   -0.46740E-04  5080   0.605E-02    0.340E-02
DAV:   6    -0.234216118015E+03   -0.18346E-04   -0.16595E-04  4856   0.287E-02    0.243E-02
DAV:   7    -0.234216118531E+03   -0.51653E-06   -0.44405E-05  4776   0.151E-02    0.147E-02
DAV:   8    -0.234216120198E+03   -0.16671E-05   -0.10375E-05  3832   0.920E-03    0.570E-03
DAV:   9    -0.234216120158E+03    0.40211E-07   -0.17444E-06  2248   0.514E-03
  34 F= -.23421612E+03 E0= -.23421612E+03  d E =-.105283E-01
       N       E                     dE             d eps       ncg     rms          rms(c)
DAV:   1    -0.234194434697E+03    0.21686E-01   -0.68636E+00  3328   0.730E+00    0.523E-01
DAV:   2    -0.234222045553E+03   -0.27611E-01   -0.29895E-01  4320   0.151E+00    0.198E-01
DAV:   3    -0.234222779971E+03   -0.73442E-03   -0.15892E-02  5744   0.298E-01    0.158E-01
DAV:   4    -0.234222724674E+03    0.55297E-04   -0.94361E-04  5720   0.911E-02    0.780E-02
DAV:   5    -0.234222660240E+03    0.64435E-04   -0.34569E-04  5024   0.532E-02    0.293E-02
DAV:   6    -0.234222677180E+03   -0.16940E-04   -0.16630E-04  5032   0.271E-02    0.213E-02
DAV:   7    -0.234222676775E+03    0.40533E-06   -0.37453E-05  4744   0.134E-02    0.141E-02
DAV:   8    -0.234222678028E+03   -0.12537E-05   -0.83119E-06  3552   0.775E-03    0.629E-03
DAV:   9    -0.234222677644E+03    0.38392E-06   -0.13269E-06  2168   0.465E-03
  35 F= -.23422268E+03 E0= -.23422268E+03  d E =-.170858E-01
       N       E                     dE             d eps       ncg     rms          rms(c)
DAV:   1    -0.234223536760E+03   -0.85873E-03   -0.51631E-01  3264   0.161E+00    0.124E-01
DAV:   2    -0.234224880555E+03   -0.13438E-02   -0.14288E-02  4592   0.319E-01    0.472E-02
DAV:   3    -0.234224897497E+03   -0.16942E-04   -0.60829E-04  5880   0.601E-02    0.355E-02
DAV:   4    -0.234224898908E+03   -0.14107E-05   -0.49064E-05  5536   0.210E-02    0.152E-02
DAV:   5    -0.234224898282E+03    0.62626E-06   -0.15735E-05  4456   0.105E-02    0.568E-03
DAV:   6    -0.234224898916E+03   -0.63389E-06   -0.37873E-06  2776   0.498E-03
  36 F= -.23422490E+03 E0= -.23422490E+03  d E =-.222127E-02
       N       E                     dE             d eps       ncg     rms          rms(c)
DAV:   1    -0.234221857333E+03    0.30409E-02   -0.16586E+00  3264   0.289E+00    0.223E-01
DAV:   2    -0.234226214555E+03   -0.43572E-02   -0.46310E-02  4592   0.573E-01    0.853E-02
DAV:   3    -0.234226284748E+03   -0.70193E-04   -0.21244E-03  5920   0.109E-01    0.642E-02
DAV:   4    -0.234226290513E+03   -0.57656E-05   -0.16499E-04  5824   0.384E-02    0.281E-02
DAV:   5    -0.234226287959E+03    0.25546E-05   -0.53860E-05  4648   0.193E-02    0.106E-02
DAV:   6    -0.234226290341E+03   -0.23821E-05   -0.15796E-05  4232   0.908E-03    0.776E-03
DAV:   7    -0.234226290433E+03   -0.91852E-07   -0.28255E-06  2312   0.443E-03
  37 F= -.23422629E+03 E0= -.23422629E+03  d E =-.361279E-02
       N       E                     dE             d eps       ncg     rms          rms(c)
DAV:   1    -0.234228296541E+03   -0.20062E-02   -0.39086E-02  3952   0.103E+00    0.670E-02
DAV:   2    -0.234228998882E+03   -0.70234E-03   -0.77847E-03  3800   0.189E-01    0.262E-02
DAV:   3    -0.234229025255E+03   -0.26372E-04   -0.37108E-04  5344   0.507E-02    0.213E-02
DAV:   4    -0.234229021653E+03    0.36021E-05   -0.18934E-05  4920   0.117E-02    0.127E-02
DAV:   5    -0.234229020140E+03    0.15128E-05   -0.89539E-06  3736   0.880E-03    0.508E-03
DAV:   6    -0.234229020197E+03   -0.57626E-07   -0.22833E-06  2288   0.478E-03
  38 F= -.23422902E+03 E0= -.23422902E+03  d E =-.272976E-02
       N       E                     dE             d eps       ncg     rms          rms(c)
DAV:   1    -0.234228575351E+03    0.44479E-03   -0.35105E-01  3936   0.310E+00    0.202E-01
DAV:   2    -0.234234915944E+03   -0.63406E-02   -0.70459E-02  3856   0.571E-01    0.785E-02
DAV:   3    -0.234235145250E+03   -0.22931E-03   -0.33011E-03  5264   0.150E-01    0.632E-02
DAV:   4    -0.234235114425E+03    0.30825E-04   -0.17480E-04  5400   0.354E-02    0.379E-02
DAV:   5    -0.234235101332E+03    0.13093E-04   -0.78135E-05  4360   0.257E-02    0.150E-02
DAV:   6    -0.234235103146E+03   -0.18142E-05   -0.29791E-05  4816   0.131E-02    0.171E-02
DAV:   7    -0.234235102052E+03    0.10937E-05   -0.52474E-06  3192   0.575E-03    0.113E-02
DAV:   8    -0.234235100810E+03    0.12421E-05   -0.17672E-06  2408   0.515E-03    0.607E-03
DAV:   9    -0.234235100578E+03    0.23251E-06   -0.16110E-06  2000   0.512E-03
  39 F= -.23423510E+03 E0= -.23423510E+03  d E =-.881015E-02
       N       E                     dE             d eps       ncg     rms          rms(c)
DAV:   1    -0.234212289676E+03    0.22811E-01   -0.13921E+00  3872   0.612E+00    0.405E-01
DAV:   2    -0.234237552564E+03   -0.25263E-01   -0.28064E-01  3840   0.115E+00    0.152E-01
DAV:   3    -0.234238450387E+03   -0.89782E-03   -0.12994E-02  5216   0.304E-01    0.126E-01
DAV:   4    -0.234238325701E+03    0.12469E-03   -0.71309E-04  5424   0.729E-02    0.765E-02
DAV:   5    -0.234238268462E+03    0.57239E-04   -0.31239E-04  4512   0.500E-02    0.298E-02
DAV:   6    -0.234238276376E+03   -0.79145E-05   -0.11744E-04  4968   0.263E-02    0.325E-02
DAV:   7    -0.234238272739E+03    0.36374E-05   -0.23908E-05  4816   0.113E-02    0.226E-02
DAV:   8    -0.234238269033E+03    0.37054E-05   -0.39668E-06  3216   0.712E-03    0.127E-02
DAV:   9    -0.234238267650E+03    0.13834E-05   -0.10863E-05  3952   0.783E-03    0.446E-03
DAV:  10    -0.234238267853E+03   -0.20343E-06   -0.17094E-06  2256   0.439E-03
  40 F= -.23423827E+03 E0= -.23423827E+03  d E =-.119774E-01
       N       E                     dE             d eps       ncg     rms          rms(c)
DAV:   1    -0.234237569755E+03    0.69789E-03   -0.50691E-02  3872   0.116E+00    0.797E-02
DAV:   2    -0.234238476472E+03   -0.90672E-03   -0.10083E-02  3864   0.219E-01    0.290E-02
DAV:   3    -0.234238507032E+03   -0.30560E-04   -0.45215E-04  5168   0.570E-02    0.237E-02
DAV:   4    -0.234238502760E+03    0.42716E-05   -0.24685E-05  5016   0.136E-02    0.140E-02
DAV:   5    -0.234238501258E+03    0.15020E-05   -0.10699E-05  3856   0.922E-03    0.550E-03
DAV:   6    -0.234238501524E+03   -0.26537E-06   -0.25534E-06  2328   0.514E-03
  41 F= -.23423850E+03 E0= -.23423850E+03  d E =-.122111E-01
       N       E                     dE             d eps       ncg     rms          rms(c)
DAV:   1    -0.234239393134E+03   -0.89188E-03   -0.94291E-02  3384   0.114E+00    0.932E-02
DAV:   2    -0.234240150206E+03   -0.75707E-03   -0.85518E-03  4200   0.259E-01    0.422E-02
DAV:   3    -0.234240143568E+03    0.66378E-05   -0.29798E-04  5592   0.532E-02    0.319E-02
DAV:   4    -0.234240134970E+03    0.85984E-05   -0.32295E-05  5480   0.157E-02    0.149E-02
DAV:   5    -0.234240131072E+03    0.38982E-05   -0.12894E-05  4368   0.979E-03    0.555E-03
DAV:   6    -0.234240130650E+03    0.42206E-06   -0.23296E-06  2304   0.476E-03
  42 F= -.23424013E+03 E0= -.23424013E+03  d E =-.162913E-02
       N       E                     dE             d eps       ncg     rms          rms(c)
DAV:   1    -0.234236371152E+03    0.37599E-02   -0.84850E-01  3368   0.343E+00    0.284E-01
DAV:   2    -0.234243178286E+03   -0.68071E-02   -0.77247E-02  4184   0.778E-01    0.125E-01
DAV:   3    -0.234243120229E+03    0.58057E-04   -0.27089E-03  5624   0.160E-01    0.934E-02
DAV:   4    -0.234243052238E+03    0.67991E-04   -0.28706E-04  5616   0.474E-02    0.440E-02
DAV:   5    -0.234243024276E+03    0.27962E-04   -0.11383E-04  4912   0.290E-02    0.163E-02
DAV:   6    -0.234243024111E+03    0.16520E-06   -0.26660E-05  4928   0.122E-02    0.164E-02
DAV:   7    -0.234243022507E+03    0.16045E-05   -0.46305E-06  3296   0.657E-03    0.792E-03
DAV:   8    -0.234243021277E+03    0.12296E-05   -0.14853E-06  2248   0.539E-03    0.390E-03
DAV:   9    -0.234243021103E+03    0.17434E-06   -0.87157E-07  1984   0.478E-03
  43 F= -.23424302E+03 E0= -.23424302E+03  d E =-.451958E-02
       N       E                     dE             d eps       ncg     rms          rms(c)
DAV:   1    -0.234241992100E+03    0.10292E-02   -0.17588E-01  3360   0.156E+00    0.129E-01
DAV:   2    -0.234243405756E+03   -0.14137E-02   -0.15991E-02  4200   0.354E-01    0.569E-02
DAV:   3    -0.234243393402E+03    0.12353E-04   -0.55824E-04  5624   0.725E-02    0.427E-02
DAV:   4    -0.234243378677E+03    0.14725E-04   -0.58986E-05  5616   0.215E-02    0.199E-02
DAV:   5    -0.234243372203E+03    0.64736E-05   -0.23400E-05  4776   0.132E-02    0.736E-03
DAV:   6    -0.234243371686E+03    0.51693E-06   -0.46197E-06  3080   0.563E-03
  44 F= -.23424337E+03 E0= -.23424337E+03  d E =-.487016E-02
       N       E                     dE             d eps       ncg     rms          rms(c)
DAV:   1    -0.234243278579E+03    0.93624E-04   -0.11822E-01  3368   0.141E+00    0.120E-01
DAV:   2    -0.234244511269E+03   -0.12327E-02   -0.14304E-02  4136   0.334E-01    0.553E-02
DAV:   3    -0.234244499988E+03    0.11281E-04   -0.43276E-04  5656   0.649E-02    0.428E-02
DAV:   4    -0.234244484974E+03    0.15013E-04   -0.49930E-05  5200   0.205E-02    0.192E-02
DAV:   5    -0.234244482675E+03    0.22993E-05   -0.19043E-05  4568   0.121E-02    0.611E-03
DAV:   6    -0.234244483676E+03   -0.10010E-05   -0.36491E-06  2888   0.548E-03    0.514E-03
DAV:   7    -0.234244484091E+03   -0.41538E-06   -0.77088E-07  1984   0.437E-03
  45 F= -.23424448E+03 E0= -.23424448E+03  d E =-.111241E-02
       N       E                     dE             d eps       ncg     rms          rms(c)
DAV:   1    -0.234238272032E+03    0.62116E-02   -0.71439E-01  3360   0.346E+00    0.294E-01
DAV:   2    -0.234245745483E+03   -0.74735E-02   -0.86398E-02  4136   0.822E-01    0.137E-01
DAV:   3    -0.234245675471E+03    0.70012E-04   -0.25878E-03  5632   0.159E-01    0.106E-01
DAV:   4    -0.234245579582E+03    0.95889E-04   -0.30217E-04  5272   0.501E-02    0.482E-02
DAV:   5    -0.234245558570E+03    0.21011E-04   -0.12196E-04  4800   0.303E-02    0.151E-02
DAV:   6    -0.234245562371E+03   -0.38010E-05   -0.29064E-05  5280   0.127E-02    0.168E-02
DAV:   7    -0.234245562937E+03   -0.56588E-06   -0.30349E-06  2944   0.499E-03
  46 F= -.23424556E+03 E0= -.23424556E+03  d E =-.219125E-02
       N       E                     dE             d eps       ncg     rms          rms(c)
DAV:   1    -0.234245696135E+03   -0.13376E-03   -0.68133E-02  3280   0.900E-01    0.889E-02
DAV:   2    -0.234246327720E+03   -0.63158E-03   -0.71353E-03  4144   0.240E-01    0.374E-02
DAV:   3    -0.234246326692E+03    0.10277E-05   -0.21923E-04  5648   0.441E-02    0.297E-02
DAV:   4    -0.234246320961E+03    0.57307E-05   -0.20622E-05  5416   0.126E-02    0.146E-02
DAV:   5    -0.234246318987E+03    0.19740E-05   -0.10009E-05  3832   0.911E-03    0.407E-03
DAV:   6    -0.234246319297E+03   -0.30965E-06   -0.25500E-06  2440   0.475E-03
  47 F= -.23424632E+03 E0= -.23424632E+03  d E =-.756360E-03
       N       E                     dE             d eps       ncg     rms          rms(c)
DAV:   1    -0.234242916736E+03    0.34023E-02   -0.61242E-01  3272   0.270E+00    0.263E-01
DAV:   2    -0.234248475926E+03   -0.55592E-02   -0.62885E-02  4168   0.722E-01    0.114E-01
DAV:   3    -0.234248463864E+03    0.12062E-04   -0.18823E-03  5624   0.131E-01    0.906E-02
DAV:   4    -0.234248416111E+03    0.47752E-04   -0.17078E-04  5600   0.370E-02    0.451E-02
DAV:   5    -0.234248396390E+03    0.19721E-04   -0.90577E-05  4680   0.269E-02    0.125E-02
DAV:   6    -0.234248399184E+03   -0.27942E-05   -0.27831E-05  4512   0.122E-02    0.127E-02
DAV:   7    -0.234248398925E+03    0.25930E-06   -0.22328E-06  2336   0.457E-03
  48 F= -.23424840E+03 E0= -.23424840E+03  d E =-.283599E-02
       N       E                     dE             d eps       ncg     rms          rms(c)
DAV:   1    -0.234228758282E+03    0.19641E-01   -0.24520E+00  3264   0.540E+00    0.517E-01
DAV:   2    -0.234250935064E+03   -0.22177E-01   -0.25055E-01  4184   0.144E+00    0.227E-01
DAV:   3    -0.234250844062E+03    0.91002E-04   -0.69875E-03  5688   0.257E-01    0.181E-01
DAV:   4    -0.234250648758E+03    0.19530E-03   -0.67952E-04  5560   0.733E-02    0.905E-02
DAV:   5    -0.234250566480E+03    0.82278E-04   -0.37086E-04  4648   0.550E-02    0.251E-02
DAV:   6    -0.234250577840E+03   -0.11361E-04   -0.12027E-04  4768   0.254E-02    0.255E-02
DAV:   7    -0.234250577121E+03    0.71910E-06   -0.15675E-05  5576   0.881E-03    0.144E-02
DAV:   8    -0.234250576715E+03    0.40589E-06   -0.11868E-06  2064   0.427E-03
  49 F= -.23425058E+03 E0= -.23425058E+03  d E =-.501378E-02
       N       E                     dE             d eps       ncg     rms          rms(c)
DAV:   1    -0.234250189961E+03    0.38716E-03   -0.25373E-01  3272   0.170E+00    0.162E-01
DAV:   2    -0.234252445344E+03   -0.22554E-02   -0.25959E-02  4344   0.424E-01    0.735E-02
DAV:   3    -0.234252431240E+03    0.14104E-04   -0.74397E-04  5632   0.777E-02    0.569E-02
DAV:   4    -0.234252408437E+03    0.22804E-04   -0.77199E-05  5448   0.258E-02    0.258E-02
DAV:   5    -0.234252401168E+03    0.72684E-05   -0.25581E-05  5024   0.133E-02    0.887E-03
DAV:   6    -0.234252399561E+03    0.16069E-05   -0.29780E-06  2752   0.509E-03    0.486E-03
DAV:   7    -0.234252398717E+03    0.84399E-06   -0.81612E-07  1984   0.449E-03
  50 F= -.23425240E+03 E0= -.23425240E+03  d E =-.182200E-02
       N       E                     dE             d eps       ncg     rms          rms(c)
DAV:   1    -0.234235980190E+03    0.16419E-01   -0.22767E+00  3272   0.508E+00    0.484E-01
DAV:   2    -0.234256358224E+03   -0.20378E-01   -0.23491E-01  4288   0.127E+00    0.219E-01
DAV:   3    -0.234256281377E+03    0.76847E-04   -0.70882E-03  5624   0.235E-01    0.171E-01
DAV:   4    -0.234256080349E+03    0.20103E-03   -0.72687E-04  5352   0.800E-02    0.783E-02
DAV:   5    -0.234256030634E+03    0.49716E-04   -0.24157E-04  5088   0.406E-02    0.271E-02
DAV:   6    -0.234256028895E+03    0.17386E-05   -0.42970E-05  5544   0.156E-02    0.195E-02
DAV:   7    -0.234256027173E+03    0.17220E-05   -0.49599E-06  3472   0.646E-03    0.102E-02
DAV:   8    -0.234256025433E+03    0.17405E-05   -0.95043E-07  1984   0.458E-03    0.406E-03
DAV:   9    -0.234256024992E+03    0.44024E-06   -0.67317E-07  1984   0.399E-03
  51 F= -.23425602E+03 E0= -.23425602E+03  d E =-.544828E-02
       N       E                     dE             d eps       ncg     rms          rms(c)
DAV:   1    -0.234174085794E+03    0.81940E-01   -0.90556E+00  3264   0.101E+01    0.968E-01
DAV:   2    -0.234255140402E+03   -0.81055E-01   -0.93642E-01  4192   0.253E+00    0.429E-01
DAV:   3    -0.234255394731E+03   -0.25433E-03   -0.32904E-02  5568   0.491E-01    0.342E-01
DAV:   4    -0.234254572252E+03    0.82248E-03   -0.30901E-03  5352   0.168E-01    0.158E-01
DAV:   5    -0.234254383062E+03    0.18919E-03   -0.10208E-03  4960   0.843E-02    0.546E-02
DAV:   6    -0.234254388730E+03   -0.56680E-05   -0.18744E-04  5624   0.338E-02    0.390E-02
DAV:   7    -0.234254387566E+03    0.11641E-05   -0.30745E-05  5200   0.140E-02    0.189E-02
DAV:   8    -0.234254383635E+03    0.39310E-05   -0.40221E-06  3304   0.679E-03    0.825E-03
DAV:   9    -0.234254382480E+03    0.11546E-05   -0.15092E-06  2096   0.514E-03    0.313E-03
DAV:  10    -0.234254382684E+03   -0.20367E-06   -0.73867E-07  1984   0.445E-03
  52 F= -.23425438E+03 E0= -.23425438E+03  d E =-.380597E-02
       N       E                     dE             d eps       ncg     rms          rms(c)
DAV:   1    -0.234238950732E+03    0.15432E-01   -0.19272E+00  3264   0.468E+00    0.439E-01
DAV:   2    -0.234256151103E+03   -0.17200E-01   -0.19851E-01  4272   0.117E+00    0.197E-01
DAV:   3    -0.234256079792E+03    0.71311E-04   -0.58055E-03  5560   0.219E-01    0.153E-01
DAV:   4    -0.234255901985E+03    0.17781E-03   -0.66391E-04  5280   0.727E-02    0.673E-02
DAV:   5    -0.234255885863E+03    0.16122E-04   -0.19972E-04  5056   0.363E-02    0.238E-02
DAV:   6    -0.234255892880E+03   -0.70173E-05   -0.28257E-05  5872   0.133E-02    0.174E-02
DAV:   7    -0.234255894730E+03   -0.18493E-05   -0.23961E-06  2560   0.517E-03    0.937E-03
DAV:   8    -0.234255896557E+03   -0.18278E-05   -0.94964E-07  2080   0.461E-03    0.275E-03
DAV:   9    -0.234255896774E+03   -0.21661E-06   -0.54784E-07  1984   0.364E-03
  53 F= -.23425590E+03 E0= -.23425590E+03  d E =-.532006E-02
       N       E                     dE             d eps       ncg     rms          rms(c)
DAV:   1    -0.234250709892E+03    0.51867E-02   -0.66266E-01  3272   0.274E+00    0.257E-01
DAV:   2    -0.234256551923E+03   -0.58420E-02   -0.67621E-02  4304   0.682E-01    0.116E-01
DAV:   3    -0.234256510463E+03    0.41460E-04   -0.19577E-03  5608   0.126E-01    0.902E-02
DAV:   4    -0.234256457317E+03    0.53146E-04   -0.20014E-04  5424   0.408E-02    0.409E-02
DAV:   5    -0.234256449922E+03    0.73945E-05   -0.66008E-05  5104   0.214E-02    0.143E-02
DAV:   6    -0.234256453634E+03   -0.37123E-05   -0.97898E-06  4392   0.803E-03    0.997E-03
DAV:   7    -0.234256455008E+03   -0.13740E-05   -0.12656E-06  1984   0.382E-03    0.520E-03
DAV:   8    -0.234256455717E+03   -0.70849E-06   -0.49888E-07  1984   0.420E-03
  54 F= -.23425646E+03 E0= -.23425646E+03  d E =-.587900E-02
       N       E                     dE             d eps       ncg     rms          rms(c)
DAV:   1    -0.234255348933E+03    0.11061E-02   -0.92275E-01  3328   0.275E+00    0.278E-01
DAV:   2    -0.234259963113E+03   -0.46142E-02   -0.50668E-02  4184   0.695E-01    0.119E-01
DAV:   3    -0.234259914066E+03    0.49047E-04   -0.15869E-03  5768   0.127E-01    0.918E-02
DAV:   4    -0.234259863253E+03    0.50813E-04   -0.18726E-04  5304   0.381E-02    0.431E-02
DAV:   5    -0.234259846036E+03    0.17217E-04   -0.86823E-05  4680   0.243E-02    0.124E-02
DAV:   6    -0.234259847306E+03   -0.12702E-05   -0.23080E-05  4664   0.111E-02    0.133E-02
DAV:   7    -0.234259846745E+03    0.56058E-06   -0.16513E-06  2080   0.419E-03
  55 F= -.23425985E+03 E0= -.23425985E+03  d E =-.339103E-02
       N       E                     dE             d eps       ncg     rms          rms(c)
DAV:   1    -0.234224125887E+03    0.35721E-01   -0.82562E+00  3328   0.824E+00    0.845E-01
DAV:   2    -0.234266131257E+03   -0.42005E-01   -0.46185E-01  4200   0.209E+00    0.352E-01
DAV:   3    -0.234266172323E+03   -0.41066E-04   -0.18853E-02  5648   0.389E-01    0.274E-01
DAV:   4    -0.234265738761E+03    0.43356E-03   -0.17136E-03  5336   0.120E-01    0.131E-01
DAV:   5    -0.234265567823E+03    0.17094E-03   -0.77408E-04  4632   0.770E-02    0.402E-02
DAV:   6    -0.234265590934E+03   -0.23111E-04   -0.28433E-04  4936   0.376E-02    0.385E-02
DAV:   7    -0.234265588282E+03    0.26513E-05   -0.32773E-05  5488   0.128E-02    0.218E-02
DAV:   8    -0.234265585486E+03    0.27964E-05   -0.34722E-06  2912   0.779E-03    0.114E-02
DAV:   9    -0.234265584366E+03    0.11203E-05   -0.49017E-06  3048   0.679E-03    0.511E-03
DAV:  10    -0.234265584567E+03   -0.20165E-06   -0.22962E-06  2280   0.420E-03
  56 F= -.23426558E+03 E0= -.23426558E+03  d E =-.912885E-02
       N       E                     dE             d eps       ncg     rms          rms(c)
DAV:   1    -0.234265370017E+03    0.21435E-03   -0.12594E+00  3320   0.282E+00    0.264E-01
DAV:   2    -0.234269832447E+03   -0.44624E-02   -0.49614E-02  4200   0.658E-01    0.121E-01
DAV:   3    -0.234269802979E+03    0.29468E-04   -0.17672E-03  5688   0.124E-01    0.886E-02
DAV:   4    -0.234269762385E+03    0.40594E-04   -0.21043E-04  5240   0.410E-02    0.379E-02
DAV:   5    -0.234269758110E+03    0.42748E-05   -0.67427E-05  4944   0.213E-02    0.119E-02
DAV:   6    -0.234269761024E+03   -0.29136E-05   -0.12367E-05  4288   0.826E-03    0.119E-02
DAV:   7    -0.234269761980E+03   -0.95558E-06   -0.15139E-06  2208   0.401E-03
  57 F= -.23426976E+03 E0= -.23426976E+03  d E =-.417741E-02
       N       E                     dE             d eps       ncg     rms          rms(c)
DAV:   1    -0.234237979936E+03    0.31781E-01   -0.11206E+01  3320   0.848E+00    0.806E-01
DAV:   2    -0.234279765017E+03   -0.41785E-01   -0.46476E-01  4184   0.198E+00    0.360E-01
DAV:   3    -0.234280006907E+03   -0.24189E-03   -0.20973E-02  5680   0.375E-01    0.263E-01
DAV:   4    -0.234279636049E+03    0.37086E-03   -0.19186E-03  5176   0.125E-01    0.117E-01
DAV:   5    -0.234279560164E+03    0.75885E-04   -0.62214E-04  4896   0.666E-02    0.365E-02
DAV:   6    -0.234279579027E+03   -0.18863E-04   -0.14648E-04  5208   0.264E-02    0.359E-02
DAV:   7    -0.234279583734E+03   -0.47069E-05   -0.25068E-05  5168   0.118E-02    0.190E-02
DAV:   8    -0.234279586468E+03   -0.27335E-05   -0.18698E-06  2248   0.572E-03    0.994E-03
DAV:   9    -0.234279587298E+03   -0.83023E-06   -0.18177E-06  2160   0.540E-03
  58 F= -.23427959E+03 E0= -.23427959E+03  d E =-.140027E-01
       N       E                     dE             d eps       ncg     rms          rms(c)
DAV:   1    -0.234048799446E+03    0.23079E+00   -0.42963E+01  3320   0.165E+01    0.174E+00
DAV:   2    -0.234255486366E+03   -0.20669E+00   -0.23058E+00  4208   0.396E+00    0.718E-01
DAV:   3    -0.234272270820E+03   -0.16784E-01   -0.24053E-01  5840   0.804E-01    0.544E-01
DAV:   4    -0.234270669546E+03    0.16013E-02   -0.10361E-02  5216   0.254E-01    0.282E-01
DAV:   5    -0.234269793152E+03    0.87639E-03   -0.33756E-03  4848   0.146E-01    0.103E-01
DAV:   6    -0.234269918146E+03   -0.12499E-03   -0.11097E-03  5440   0.648E-02    0.661E-02
DAV:   7    -0.234269940387E+03   -0.22241E-04   -0.15942E-04  5664   0.334E-02    0.327E-02
DAV:   8    -0.234269948444E+03   -0.80572E-05   -0.23632E-05  5176   0.131E-02    0.161E-02
DAV:   9    -0.234269950045E+03   -0.16010E-05   -0.68100E-06  3768   0.735E-03    0.878E-03
DAV:  10    -0.234269950559E+03   -0.51348E-06   -0.17738E-06  2472   0.490E-03
  59 F= -.23426995E+03 E0= -.23426995E+03  d E =-.436599E-02
       N       E                     dE             d eps       ncg     rms          rms(c)
DAV:   1    -0.234215008196E+03    0.54942E-01   -0.14312E+01  3360   0.939E+00    0.921E-01
DAV:   2    -0.234277311010E+03   -0.62303E-01   -0.68933E-01  4200   0.220E+00    0.408E-01
DAV:   3    -0.234279402165E+03   -0.20912E-02   -0.45356E-02  5656   0.437E-01    0.319E-01
DAV:   4    -0.234278815905E+03    0.58626E-03   -0.30688E-03  5176   0.148E-01    0.152E-01
DAV:   5    -0.234278584847E+03    0.23106E-03   -0.10612E-03  4760   0.799E-02    0.451E-02
DAV:   6    -0.234278615596E+03   -0.30750E-04   -0.35367E-04  5816   0.362E-02    0.417E-02
DAV:   7    -0.234278615829E+03   -0.23225E-06   -0.33202E-05  5368   0.153E-02    0.222E-02
DAV:   8    -0.234278613479E+03    0.23498E-05   -0.30505E-06  2640   0.674E-03    0.996E-03
DAV:   9    -0.234278612216E+03    0.12627E-05   -0.24520E-06  2264   0.608E-03    0.432E-03
DAV:  10    -0.234278612406E+03   -0.18970E-06   -0.10986E-06  2048   0.506E-03
  60 F= -.23427861E+03 E0= -.23427861E+03  d E =-.130278E-01
       N       E                     dE             d eps       ncg     rms          rms(c)
DAV:   1    -0.234273890959E+03    0.47213E-02   -0.18045E+00  3328   0.333E+00    0.315E-01
DAV:   2    -0.234280686081E+03   -0.67951E-02   -0.75256E-02  4248   0.776E-01    0.142E-01
DAV:   3    -0.234280678749E+03    0.73319E-05   -0.29720E-03  5672   0.145E-01    0.107E-01
DAV:   4    -0.234280608339E+03    0.70411E-04   -0.30122E-04  5144   0.495E-02    0.469E-02
DAV:   5    -0.234280589215E+03    0.19124E-04   -0.11104E-04  4864   0.266E-02    0.144E-02
DAV:   6    -0.234280589560E+03   -0.34543E-06   -0.25875E-05  5120   0.111E-02    0.152E-02
DAV:   7    -0.234280588732E+03    0.82779E-06   -0.20724E-06  2504   0.519E-03
  61 F= -.23428059E+03 E0= -.23428059E+03  d E =-.150042E-01
       N       E                     dE             d eps       ncg     rms          rms(c)
DAV:   1    -0.234279617043E+03    0.97252E-03   -0.13498E+00  3264   0.254E+00    0.220E-01
DAV:   2    -0.234283278695E+03   -0.36617E-02   -0.39323E-02  4568   0.512E-01    0.881E-02
DAV:   3    -0.234283307762E+03   -0.29068E-04   -0.14998E-03  5784   0.898E-02    0.640E-02
DAV:   4    -0.234283297687E+03    0.10076E-04   -0.12256E-04  5344   0.313E-02    0.258E-02
DAV:   5    -0.234283296254E+03    0.14327E-05   -0.36926E-05  4960   0.163E-02    0.653E-03
DAV:   6    -0.234283297734E+03   -0.14798E-05   -0.65194E-06  3472   0.644E-03    0.729E-03
DAV:   7    -0.234283298030E+03   -0.29610E-06   -0.79820E-07  1992   0.334E-03
  62 F= -.23428330E+03 E0= -.23428330E+03  d E =-.270930E-02
       N       E                     dE             d eps       ncg     rms          rms(c)
DAV:   1    -0.234264224897E+03    0.19073E-01   -0.86764E+00  3264   0.642E+00    0.589E-01
DAV:   2    -0.234290308219E+03   -0.26083E-01   -0.28046E-01  4576   0.132E+00    0.225E-01
DAV:   3    -0.234290828299E+03   -0.52008E-03   -0.13211E-02  5824   0.232E-01    0.165E-01
DAV:   4    -0.234290758731E+03    0.69568E-04   -0.93324E-04  5520   0.817E-02    0.692E-02
DAV:   5    -0.234290734006E+03    0.24725E-04   -0.24953E-04  5104   0.420E-02    0.185E-02
DAV:   6    -0.234290744169E+03   -0.10163E-04   -0.63801E-05  5360   0.171E-02    0.202E-02
DAV:   7    -0.234290745053E+03   -0.88407E-06   -0.64036E-06  3864   0.702E-03
  63 F= -.23429075E+03 E0= -.23429075E+03  d E =-.101563E-01
       N       E                     dE             d eps       ncg     rms          rms(c)
DAV:   1    -0.234159081421E+03    0.13166E+00   -0.33226E+01  3264   0.126E+01    0.130E+00
DAV:   2    -0.234293329857E+03   -0.13425E+00   -0.14616E+00  4456   0.261E+00    0.450E-01
DAV:   3    -0.234306871488E+03   -0.13542E-01   -0.16447E-01  5896   0.517E-01    0.355E-01
DAV:   4    -0.234306572218E+03    0.29927E-03   -0.72699E-03  5528   0.183E-01    0.189E-01
DAV:   5    -0.234306082073E+03    0.49015E-03   -0.13367E-03  4968   0.908E-02    0.785E-02
DAV:   6    -0.234306144889E+03   -0.62816E-04   -0.71597E-04  4744   0.495E-02    0.341E-02
DAV:   7    -0.234306162370E+03   -0.17481E-04   -0.16769E-04  5824   0.277E-02    0.223E-02
DAV:   8    -0.234306167206E+03   -0.48355E-05   -0.16078E-05  4376   0.112E-02    0.907E-03
DAV:   9    -0.234306168130E+03   -0.92475E-06   -0.21500E-06  2176   0.483E-03
  64 F= -.23430617E+03 E0= -.23430617E+03  d E =-.255794E-01
       N       E                     dE             d eps       ncg     rms          rms(c)
DAV:   1    -0.233373424201E+03    0.93274E+00   -0.11628E+02  3264   0.238E+01    0.311E+00
DAV:   2    -0.234220476257E+03   -0.84705E+00   -0.93128E+00  4440   0.527E+00    0.989E-01
DAV:   3    -0.234316385475E+03   -0.95909E-01   -0.10607E+00  6048   0.118E+00    0.751E-01
DAV:   4    -0.234319161678E+03   -0.27762E-02   -0.84679E-02  5472   0.397E-01    0.501E-01
DAV:   5    -0.234314915570E+03    0.42461E-02   -0.69275E-03  5328   0.164E-01    0.282E-01
DAV:   6    -0.234313893657E+03    0.10219E-02   -0.53816E-03  4064   0.156E-01    0.996E-02
DAV:   7    -0.234314150358E+03   -0.25670E-03   -0.25582E-03  5280   0.904E-02    0.729E-02
DAV:   8    -0.234314170327E+03   -0.19969E-04   -0.16578E-04  5304   0.326E-02    0.489E-02
DAV:   9    -0.234314175596E+03   -0.52693E-05   -0.29662E-05  4528   0.128E-02    0.272E-02
DAV:  10    -0.234314179139E+03   -0.35421E-05   -0.11059E-05  3968   0.647E-03    0.147E-02
DAV:  11    -0.234314178991E+03    0.14725E-06   -0.11955E-06  2208   0.447E-03
  65 F= -.23431418E+03 E0= -.23431418E+03  d E =-.335903E-01
       N       E                     dE             d eps       ncg     rms          rms(c)
DAV:   1    -0.234298088371E+03    0.16091E-01   -0.10314E+01  3328   0.741E+00    0.572E-01
DAV:   2    -0.234327778372E+03   -0.29690E-01   -0.32486E-01  4328   0.135E+00    0.207E-01
DAV:   3    -0.234329042548E+03   -0.12642E-02   -0.19438E-02  5912   0.290E-01    0.167E-01
DAV:   4    -0.234328998677E+03    0.43871E-04   -0.14363E-03  5536   0.853E-02    0.863E-02
DAV:   5    -0.234328937524E+03    0.61153E-04   -0.25887E-04  4960   0.397E-02    0.283E-02
DAV:   6    -0.234328947665E+03   -0.10142E-04   -0.10978E-04  5096   0.197E-02    0.149E-02
DAV:   7    -0.234328949858E+03   -0.21930E-05   -0.22539E-05  5400   0.102E-02    0.945E-03
DAV:   8    -0.234328950016E+03   -0.15786E-06   -0.13113E-06  2240   0.405E-03
  66 F= -.23432895E+03 E0= -.23432895E+03  d E =-.147710E-01
       N       E                     dE             d eps       ncg     rms          rms(c)
DAV:   1    -0.233710145590E+03    0.61880E+00   -0.80396E+01  3328   0.212E+01    0.243E+00
DAV:   2    -0.234281356746E+03   -0.57121E+00   -0.62218E+00  4488   0.432E+00    0.708E-01
DAV:   3    -0.234351719620E+03   -0.70363E-01   -0.73928E-01  6080   0.977E-01    0.590E-01
DAV:   4    -0.234353566463E+03   -0.18468E-02   -0.49492E-02  5560   0.311E-01    0.415E-01
DAV:   5    -0.234350886351E+03    0.26801E-02   -0.37147E-03  5320   0.114E-01    0.247E-01
DAV:   6    -0.234350075493E+03    0.81086E-03   -0.42845E-03  3976   0.134E-01    0.945E-02
DAV:   7    -0.234350242254E+03   -0.16676E-03   -0.19638E-03  5160   0.770E-02    0.528E-02
DAV:   8    -0.234350259494E+03   -0.17240E-04   -0.13384E-04  5776   0.287E-02    0.377E-02
DAV:   9    -0.234350257892E+03    0.16015E-05   -0.18548E-05  4416   0.108E-02    0.200E-02
DAV:  10    -0.234350259495E+03   -0.16026E-05   -0.81215E-06  3232   0.603E-03    0.105E-02
DAV:  11    -0.234350260076E+03   -0.58162E-06   -0.20117E-06  2312   0.436E-03
  67 F= -.23435026E+03 E0= -.23435026E+03  d E =-.360811E-01
       N       E                     dE             d eps       ncg     rms          rms(c)
DAV:   1    -0.234336442084E+03    0.13817E-01   -0.50642E+00  3328   0.513E+00    0.417E-01
DAV:   2    -0.234352503831E+03   -0.16062E-01   -0.17197E-01  4496   0.974E-01    0.153E-01
DAV:   3    -0.234353094741E+03   -0.59091E-03   -0.94863E-03  5920   0.193E-01    0.107E-01
DAV:   4    -0.234353095030E+03   -0.28980E-06   -0.52675E-04  5560   0.619E-02    0.506E-02
DAV:   5    -0.234353091811E+03    0.32194E-05   -0.12351E-04  5008   0.282E-02    0.142E-02
DAV:   6    -0.234353097109E+03   -0.52981E-05   -0.38166E-05  5264   0.122E-02    0.127E-02
DAV:   7    -0.234353097195E+03   -0.85507E-07   -0.51063E-06  3528   0.611E-03
  68 F= -.23435310E+03 E0= -.23435310E+03  d E =-.389182E-01
       N       E                     dE             d eps       ncg     rms          rms(c)
DAV:   1    -0.234266814796E+03    0.86282E-01   -0.19602E+01  3328   0.101E+01    0.931E-01
DAV:   2    -0.234344698941E+03   -0.77884E-01   -0.84203E-01  4488   0.196E+00    0.300E-01
DAV:   3    -0.234352088897E+03   -0.73900E-02   -0.86307E-02  5992   0.411E-01    0.240E-01
DAV:   4    -0.234352023753E+03    0.65144E-04   -0.32899E-03  5584   0.132E-01    0.134E-01
DAV:   5    -0.234351862245E+03    0.16151E-03   -0.68371E-04  4968   0.580E-02    0.528E-02
DAV:   6    -0.234351897636E+03   -0.35391E-04   -0.33803E-04  4880   0.335E-02    0.219E-02
DAV:   7    -0.234351907609E+03   -0.99733E-05   -0.85728E-05  5688   0.202E-02    0.121E-02
DAV:   8    -0.234351908989E+03   -0.13802E-05   -0.11872E-05  4072   0.830E-03    0.634E-03
DAV:   9    -0.234351909164E+03   -0.17527E-06   -0.16401E-06  2176   0.336E-03
  69 F= -.23435191E+03 E0= -.23435191E+03  d E =-.377302E-01
       N       E                     dE             d eps       ncg     rms          rms(c)
DAV:   1    -0.234333757206E+03    0.18152E-01   -0.62950E+00  3328   0.571E+00    0.464E-01
DAV:   2    -0.234355162182E+03   -0.21405E-01   -0.23006E-01  4368   0.108E+00    0.165E-01
DAV:   3    -0.234356458455E+03   -0.12963E-02   -0.16940E-02  5792   0.227E-01    0.126E-01
DAV:   4    -0.234356425724E+03    0.32731E-04   -0.75037E-04  5416   0.703E-02    0.596E-02
DAV:   5    -0.234356421728E+03    0.39959E-05   -0.18080E-04  5152   0.326E-02    0.152E-02
DAV:   6    -0.234356431257E+03   -0.95292E-05   -0.53044E-05  5728   0.138E-02    0.147E-02
DAV:   7    -0.234356432600E+03   -0.13425E-05   -0.41851E-06  3080   0.622E-03    0.723E-03
DAV:   8    -0.234356433446E+03   -0.84657E-06   -0.15799E-06  2168   0.479E-03
  70 F= -.23435643E+03 E0= -.23435643E+03  d E =-.422545E-01
       N       E                     dE             d eps       ncg     rms          rms(c)
DAV:   1    -0.234309547832E+03    0.46885E-01   -0.15710E+01  3328   0.951E+00    0.876E-01
DAV:   2    -0.234371932819E+03   -0.62385E-01   -0.68279E-01  4536   0.201E+00    0.321E-01
DAV:   3    -0.234375942653E+03   -0.40098E-02   -0.60061E-02  5840   0.423E-01    0.251E-01
DAV:   4    -0.234375782464E+03    0.16019E-03   -0.29283E-03  5664   0.133E-01    0.129E-01
DAV:   5    -0.234375592080E+03    0.19038E-03   -0.73871E-04  4968   0.698E-02    0.468E-02
DAV:   6    -0.234375624251E+03   -0.32171E-04   -0.35101E-04  4648   0.357E-02    0.277E-02
DAV:   7    -0.234375630650E+03   -0.63987E-05   -0.98582E-05  5600   0.221E-02    0.160E-02
DAV:   8    -0.234375632024E+03   -0.13745E-05   -0.12437E-05  4168   0.974E-03    0.633E-03
DAV:   9    -0.234375632437E+03   -0.41276E-06   -0.22310E-06  2344   0.574E-03
  71 F= -.23437563E+03 E0= -.23437563E+03  d E =-.191990E-01
       N       E                     dE             d eps       ncg     rms          rms(c)
DAV:   1    -0.234275582770E+03    0.10005E+00   -0.23873E+01  3328   0.117E+01    0.114E+00
DAV:   2    -0.234381294535E+03   -0.10571E+00   -0.11613E+00  4472   0.251E+00    0.407E-01
DAV:   3    -0.234390720153E+03   -0.94256E-02   -0.12399E-01  5696   0.541E-01    0.327E-01
DAV:   4    -0.234390431898E+03    0.28825E-03   -0.54845E-03  5744   0.171E-01    0.179E-01
DAV:   5    -0.234390017518E+03    0.41438E-03   -0.12847E-03  5008   0.886E-02    0.709E-02
DAV:   6    -0.234390063550E+03   -0.46033E-04   -0.66429E-04  4288   0.508E-02    0.349E-02
DAV:   7    -0.234390083368E+03   -0.19818E-04   -0.22433E-04  5672   0.325E-02    0.218E-02
DAV:   8    -0.234390086045E+03   -0.26769E-05   -0.23859E-05  4696   0.134E-02    0.977E-03
DAV:   9    -0.234390086527E+03   -0.48172E-06   -0.35061E-06  2648   0.635E-03
  72 F= -.23439009E+03 E0= -.23439009E+03  d E =-.336531E-01
       N       E                     dE             d eps       ncg     rms          rms(c)
DAV:   1    -0.233672964596E+03    0.71712E+00   -0.85821E+01  3328   0.226E+01    0.273E+00
DAV:   2    -0.234318520357E+03   -0.64556E+00   -0.71142E+00  4560   0.510E+00    0.871E-01
DAV:   3    -0.234386297084E+03   -0.67777E-01   -0.76175E-01  5952   0.116E+00    0.687E-01
DAV:   4    -0.234388917294E+03   -0.26202E-02   -0.69216E-02  5792   0.372E-01    0.461E-01
DAV:   5    -0.234385378139E+03    0.35392E-02   -0.54356E-03  5264   0.151E-01    0.272E-01
DAV:   6    -0.234384231444E+03    0.11467E-02   -0.54137E-03  3992   0.163E-01    0.108E-01
DAV:   7    -0.234384475164E+03   -0.24372E-03   -0.27861E-03  5008   0.990E-02    0.669E-02
DAV:   8    -0.234384501159E+03   -0.25995E-04   -0.26023E-04  5816   0.390E-02    0.478E-02
DAV:   9    -0.234384496610E+03    0.45492E-05   -0.38229E-05  4816   0.153E-02    0.260E-02
DAV:  10    -0.234384499069E+03   -0.24585E-05   -0.13337E-05  3728   0.108E-02    0.152E-02
DAV:  11    -0.234384500310E+03   -0.12413E-05   -0.10590E-05  3832   0.808E-03    0.106E-02
DAV:  12    -0.234384499383E+03    0.92668E-06   -0.32274E-06  2608   0.475E-03
  73 F= -.23438450E+03 E0= -.23438450E+03  d E =-.280659E-01
       N       E                     dE             d eps       ncg     rms          rms(c)
DAV:   1    -0.234180843064E+03    0.20366E+00   -0.36338E+01  3328   0.145E+01    0.146E+00
DAV:   2    -0.234384541978E+03   -0.20370E+00   -0.22310E+00  4512   0.313E+00    0.510E-01
DAV:   3    -0.234399004455E+03   -0.14462E-01   -0.18612E-01  5744   0.690E-01    0.438E-01
DAV:   4    -0.234398729629E+03    0.27483E-03   -0.12952E-02  5672   0.212E-01    0.257E-01
DAV:   5    -0.234397753808E+03    0.97582E-03   -0.19416E-03  5056   0.114E-01    0.111E-01
DAV:   6    -0.234397745211E+03    0.85968E-05   -0.10388E-03  4448   0.656E-02    0.393E-02
DAV:   7    -0.234397768990E+03   -0.23778E-04   -0.26195E-04  5872   0.366E-02    0.274E-02
DAV:   8    -0.234397769423E+03   -0.43340E-06   -0.31330E-05  4448   0.145E-02    0.156E-02
DAV:   9    -0.234397766091E+03    0.33325E-05   -0.92691E-06  3672   0.873E-03    0.607E-03
DAV:  10    -0.234397765588E+03    0.50292E-06   -0.57394E-06  3240   0.707E-03
  74 F= -.23439777E+03 E0= -.23439777E+03  d E =-.413321E-01
       N       E                     dE             d eps       ncg     rms          rms(c)
DAV:   1    -0.234266012836E+03    0.13175E+00   -0.29815E+01  3328   0.141E+01    0.142E+00
DAV:   2    -0.234418859008E+03   -0.15285E+00   -0.17141E+00  4448   0.332E+00    0.555E-01
DAV:   3    -0.234427715386E+03   -0.88564E-02   -0.14725E-01  5776   0.703E-01    0.447E-01
DAV:   4    -0.234427004234E+03    0.71115E-03   -0.88080E-03  5752   0.228E-01    0.233E-01
DAV:   5    -0.234426236431E+03    0.76780E-03   -0.21529E-03  4896   0.118E-01    0.938E-02
DAV:   6    -0.234426300570E+03   -0.64140E-04   -0.10173E-03  4456   0.615E-02    0.469E-02
DAV:   7    -0.234426332497E+03   -0.31926E-04   -0.30091E-04  5848   0.381E-02    0.269E-02
DAV:   8    -0.234426336940E+03   -0.44429E-05   -0.30645E-05  4496   0.145E-02    0.127E-02
DAV:   9    -0.234426338326E+03   -0.13861E-05   -0.65194E-06  3560   0.731E-03    0.590E-03
DAV:  10    -0.234426338950E+03   -0.62456E-06   -0.17511E-06  2408   0.545E-03
  75 F= -.23442634E+03 E0= -.23442634E+03  d E =-.285734E-01
       N       E                     dE             d eps       ncg     rms          rms(c)
DAV:   1    -0.234375997722E+03    0.50341E-01   -0.12702E+01  3328   0.914E+00    0.864E-01
DAV:   2    -0.234432861995E+03   -0.56864E-01   -0.63818E-01  4440   0.212E+00    0.369E-01
DAV:   3    -0.234434529109E+03   -0.16671E-02   -0.42539E-02  5760   0.435E-01    0.285E-01
DAV:   4    -0.234434181159E+03    0.34795E-03   -0.27358E-03  5704   0.141E-01    0.143E-01
DAV:   5    -0.234433932268E+03    0.24889E-03   -0.10263E-03  4864   0.815E-02    0.484E-02
DAV:   6    -0.234433973087E+03   -0.40819E-04   -0.40021E-04  5112   0.376E-02    0.370E-02
DAV:   7    -0.234433976103E+03   -0.30164E-05   -0.66177E-05  5152   0.188E-02    0.197E-02
DAV:   8    -0.234433978436E+03   -0.23326E-05   -0.94164E-06  3744   0.848E-03    0.736E-03
DAV:   9    -0.234433979438E+03   -0.10024E-05   -0.24008E-06  2272   0.574E-03    0.287E-03
DAV:  10    -0.234433979701E+03   -0.26306E-06   -0.13724E-06  2280   0.526E-03
  76 F= -.23443398E+03 E0= -.23443398E+03  d E =-.362141E-01
       N       E                     dE             d eps       ncg     rms          rms(c)
DAV:   1    -0.234427124724E+03    0.68547E-02   -0.18164E+00  3328   0.344E+00    0.311E-01
DAV:   2    -0.234434573574E+03   -0.74489E-02   -0.83403E-02  4488   0.790E-01    0.141E-01
DAV:   3    -0.234434532686E+03    0.40887E-04   -0.33742E-03  5568   0.158E-01    0.106E-01
DAV:   4    -0.234434481838E+03    0.50848E-04   -0.34596E-04  5672   0.515E-02    0.502E-02
DAV:   5    -0.234434458899E+03    0.22940E-04   -0.14375E-04  4968   0.308E-02    0.153E-02
DAV:   6    -0.234434463772E+03   -0.48731E-05   -0.38208E-05  4856   0.129E-02    0.157E-02
DAV:   7    -0.234434464201E+03   -0.42872E-06   -0.54137E-06  3568   0.618E-03
  77 F= -.23443446E+03 E0= -.23443446E+03  d E =-.366986E-01
       N       E                     dE             d eps       ncg     rms          rms(c)
DAV:   1    -0.234327050501E+03    0.10741E+00   -0.26058E+01  3328   0.142E+01    0.127E+00
DAV:   2    -0.234457786708E+03   -0.13074E+00   -0.14536E+00  4408   0.328E+00    0.518E-01
DAV:   3    -0.234462591031E+03   -0.48043E-02   -0.10189E-01  5816   0.690E-01    0.425E-01
DAV:   4    -0.234461944567E+03    0.64646E-03   -0.61768E-03  5688   0.229E-01    0.214E-01
DAV:   5    -0.234461234384E+03    0.71018E-03   -0.24024E-03  4736   0.130E-01    0.782E-02
DAV:   6    -0.234461329531E+03   -0.95147E-04   -0.11465E-03  5056   0.676E-02    0.512E-02
DAV:   7    -0.234461326840E+03    0.26903E-05   -0.16710E-04  5520   0.281E-02    0.352E-02
DAV:   8    -0.234461326286E+03    0.55445E-06   -0.32654E-05  4168   0.152E-02    0.134E-02
DAV:   9    -0.234461324137E+03    0.21492E-05   -0.16108E-05  4192   0.109E-02    0.750E-03
DAV:  10    -0.234461324200E+03   -0.63028E-07   -0.79266E-06  3768   0.762E-03
  78 F= -.23446132E+03 E0= -.23446132E+03  d E =-.268600E-01
       N       E                     dE             d eps       ncg     rms          rms(c)
DAV:   1    -0.234460751459E+03    0.57268E-03   -0.19789E-01  3328   0.123E+00    0.993E-02
DAV:   2    -0.234461625814E+03   -0.87436E-03   -0.96407E-03  4488   0.278E-01    0.456E-02
DAV:   3    -0.234461620650E+03    0.51640E-05   -0.36909E-04  5600   0.559E-02    0.360E-02
DAV:   4    -0.234461614858E+03    0.57926E-05   -0.38610E-05  5624   0.179E-02    0.162E-02
DAV:   5    -0.234461611064E+03    0.37934E-05   -0.16506E-05  4280   0.114E-02    0.462E-03
DAV:   6    -0.234461611366E+03   -0.30146E-06   -0.52301E-06  3280   0.574E-03
  79 F= -.23446161E+03 E0= -.23446161E+03  d E =-.271472E-01
       N       E                     dE             d eps       ncg     rms          rms(c)
DAV:   1    -0.234450338826E+03    0.11272E-01   -0.35184E+00  3384   0.663E+00    0.637E-01
DAV:   2    -0.234476988240E+03   -0.26649E-01   -0.31191E-01  4256   0.165E+00    0.277E-01
DAV:   3    -0.234476534441E+03    0.45380E-03   -0.10829E-02  5792   0.324E-01    0.214E-01
DAV:   4    -0.234476160347E+03    0.37409E-03   -0.12225E-03  5440   0.100E-01    0.969E-02
DAV:   5    -0.234476011732E+03    0.14861E-03   -0.55461E-04  4568   0.696E-02    0.313E-02
DAV:   6    -0.234476024437E+03   -0.12705E-04   -0.16974E-04  4784   0.318E-02    0.401E-02
DAV:   7    -0.234476022453E+03    0.19843E-05   -0.30076E-05  5536   0.122E-02    0.214E-02
DAV:   8    -0.234476021861E+03    0.59152E-06   -0.27994E-06  2616   0.634E-03
  80 F= -.23447602E+03 E0= -.23447602E+03  d E =-.144105E-01
       N       E                     dE             d eps       ncg     rms          rms(c)
DAV:   1    -0.234465929014E+03    0.10093E-01   -0.18342E+00  3368   0.477E+00    0.450E-01
DAV:   2    -0.234479987609E+03   -0.14059E-01   -0.16447E-01  4312   0.120E+00    0.201E-01
DAV:   3    -0.234479705989E+03    0.28162E-03   -0.53648E-03  5752   0.230E-01    0.154E-01
DAV:   4    -0.234479501413E+03    0.20458E-03   -0.63502E-04  5480   0.717E-02    0.701E-02
DAV:   5    -0.234479421614E+03    0.79798E-04   -0.30099E-04  4544   0.510E-02    0.225E-02
DAV:   6    -0.234479428809E+03   -0.71947E-05   -0.92247E-05  4968   0.231E-02    0.297E-02
DAV:   7    -0.234479427837E+03    0.97196E-06   -0.14984E-05  4920   0.858E-03    0.159E-02
DAV:   8    -0.234479427538E+03    0.29887E-06   -0.15258E-06  2216   0.501E-03
  81 F= -.23447943E+03 E0= -.23447943E+03  d E =-.178162E-01
       N       E                     dE             d eps       ncg     rms          rms(c)
DAV:   1    -0.234480329259E+03   -0.90142E-03   -0.13616E+00  3328   0.380E+00    0.358E-01
DAV:   2    -0.234488943527E+03   -0.86143E-02   -0.99152E-02  4312   0.947E-01    0.153E-01
DAV:   3    -0.234488907780E+03    0.35747E-04   -0.35987E-03  5808   0.177E-01    0.120E-01
DAV:   4    -0.234488823567E+03    0.84213E-04   -0.34460E-04  5688   0.553E-02    0.556E-02
DAV:   5    -0.234488790005E+03    0.33562E-04   -0.16663E-04  4776   0.358E-02    0.166E-02
DAV:   6    -0.234488793957E+03   -0.39520E-05   -0.38758E-05  4512   0.146E-02    0.183E-02
DAV:   7    -0.234488794010E+03   -0.53620E-07   -0.63551E-06  3504   0.614E-03
  82 F= -.23448879E+03 E0= -.23448879E+03  d E =-.936647E-02
       N       E                     dE             d eps       ncg     rms          rms(c)
DAV:   1    -0.234428345980E+03    0.60448E-01   -0.11804E+01  3328   0.112E+01    0.103E+00
DAV:   2    -0.234503650181E+03   -0.75304E-01   -0.86575E-01  4312   0.277E+00    0.440E-01
DAV:   3    -0.234503813044E+03   -0.16286E-03   -0.35511E-02  5880   0.526E-01    0.348E-01
DAV:   4    -0.234503107542E+03    0.70550E-03   -0.30347E-03  5568   0.169E-01    0.161E-01
DAV:   5    -0.234502793018E+03    0.31452E-03   -0.14894E-03  4840   0.109E-01    0.497E-02
DAV:   6    -0.234502827701E+03   -0.34683E-04   -0.37340E-04  4784   0.451E-02    0.542E-02
DAV:   7    -0.234502825365E+03    0.23365E-05   -0.67004E-05  5672   0.181E-02    0.283E-02
DAV:   8    -0.234502826189E+03   -0.82400E-06   -0.67956E-06  3632   0.812E-03
  83 F= -.23450283E+03 E0= -.23450283E+03  d E =-.233987E-01
       N       E                     dE             d eps       ncg     rms          rms(c)
DAV:   1    -0.234501521714E+03    0.13037E-02   -0.24548E-01  3328   0.162E+00    0.152E-01
DAV:   2    -0.234503111623E+03   -0.15899E-02   -0.18286E-02  4344   0.397E-01    0.619E-02
DAV:   3    -0.234503100837E+03    0.10786E-04   -0.64278E-04  5728   0.746E-02    0.491E-02
DAV:   4    -0.234503085293E+03    0.15544E-04   -0.65315E-05  5544   0.241E-02    0.219E-02
DAV:   5    -0.234503079652E+03    0.56409E-05   -0.30248E-05  4568   0.159E-02    0.688E-03
DAV:   6    -0.234503080571E+03   -0.91890E-06   -0.76492E-06  3600   0.708E-03
  84 F= -.23450308E+03 E0= -.23450308E+03  d E =-.236530E-01
       N       E                     dE             d eps       ncg     rms          rms(c)
DAV:   1    -0.234495057273E+03    0.80224E-02   -0.20343E+00  3288   0.487E+00    0.430E-01
DAV:   2    -0.234511067895E+03   -0.16011E-01   -0.18431E-01  4304   0.116E+00    0.176E-01
DAV:   3    -0.234511091744E+03   -0.23850E-04   -0.63658E-03  5600   0.227E-01    0.142E-01
DAV:   4    -0.234510972642E+03    0.11910E-03   -0.58617E-04  5584   0.729E-02    0.666E-02
DAV:   5    -0.234510934365E+03    0.38277E-04   -0.24200E-04  5048   0.434E-02    0.228E-02
DAV:   6    -0.234510941239E+03   -0.68736E-05   -0.47834E-05  4824   0.163E-02    0.206E-02
DAV:   7    -0.234510943029E+03   -0.17900E-05   -0.97486E-06  4432   0.769E-03    0.102E-02
DAV:   8    -0.234510944240E+03   -0.12117E-05   -0.10209E-06  2144   0.432E-03    0.504E-03
DAV:   9    -0.234510944606E+03   -0.36597E-06   -0.60005E-07  1984   0.400E-03
  85 F= -.23451094E+03 E0= -.23451094E+03  d E =-.786404E-02
       N       E                     dE             d eps       ncg     rms          rms(c)
DAV:   1    -0.234445411965E+03    0.65532E-01   -0.93488E+00  3272   0.105E+01    0.928E-01
DAV:   2    -0.234521317426E+03   -0.75905E-01   -0.87046E-01  4344   0.248E+00    0.381E-01
DAV:   3    -0.234521334169E+03   -0.16743E-04   -0.28914E-02  5656   0.474E-01    0.305E-01
[...]
DAV:   3    -0.234562889475E+03    0.10780E-04   -0.71717E-05  5640   0.273E-02    0.251E-02
DAV:   4    -0.234562882582E+03    0.68937E-05   -0.18583E-05  4760   0.127E-02    0.916E-03
DAV:   5    -0.234562880685E+03    0.18971E-05   -0.25374E-06  2296   0.469E-03    0.344E-03
DAV:   6    -0.234562879657E+03    0.10276E-05   -0.10536E-06  1960   0.481E-03    0.206E-03
DAV:   7    -0.234562879348E+03    0.30891E-06   -0.74161E-07  1936   0.408E-03
 118 F= -.23456288E+03 E0= -.23456288E+03  d E =-.905096E-04
       N       E                     dE             d eps       ncg     rms          rms(c)
DAV:   1    -0.234562540225E+03    0.33943E-03   -0.51499E-02  3472   0.675E-01    0.994E-02
DAV:   2    -0.234562949011E+03   -0.40879E-03   -0.52855E-03  4280   0.210E-01    0.490E-02
DAV:   3    -0.234562926972E+03    0.22039E-04   -0.15347E-04  5648   0.401E-02    0.371E-02
DAV:   4    -0.234562913136E+03    0.13836E-04   -0.38737E-05  5008   0.184E-02    0.137E-02
DAV:   5    -0.234562910055E+03    0.30808E-05   -0.69203E-06  3592   0.667E-03    0.537E-03
DAV:   6    -0.234562908592E+03    0.14626E-05   -0.10372E-06  1984   0.443E-03    0.355E-03
DAV:   7    -0.234562907966E+03    0.62667E-06   -0.57674E-07  1960   0.462E-03
 119 F= -.23456291E+03 E0= -.23456291E+03  d E =-.119127E-03
       N       E                     dE             d eps       ncg     rms          rms(c)
DAV:   1    -0.234562888998E+03    0.19595E-04   -0.32661E-03  3472   0.170E-01    0.247E-02
DAV:   2    -0.234562913443E+03   -0.24445E-04   -0.33553E-04  4256   0.528E-02    0.132E-02
DAV:   3    -0.234562911651E+03    0.17915E-05   -0.87176E-06  4464   0.100E-02    0.960E-03
DAV:   4    -0.234562910935E+03    0.71690E-06   -0.34789E-06  2744   0.502E-03
 120 F= -.23456291E+03 E0= -.23456291E+03  d E =-.122096E-03
       N       E                     dE             d eps       ncg     rms          rms(c)
DAV:   1    -0.234562864518E+03    0.47134E-04   -0.15743E-02  3328   0.330E-01    0.470E-02
DAV:   2    -0.234562964424E+03   -0.99906E-04   -0.11270E-03  4592   0.113E-01    0.218E-02
DAV:   3    -0.234562962452E+03    0.19722E-05   -0.33699E-05  5536   0.192E-02    0.161E-02
DAV:   4    -0.234562960914E+03    0.15374E-05   -0.36097E-06  3104   0.578E-03    0.843E-03
DAV:   5    -0.234562960740E+03    0.17432E-06   -0.50084E-06  3080   0.510E-03
 121 F= -.23456296E+03 E0= -.23456296E+03  d E =-.498054E-04
       N       E                     dE             d eps       ncg     rms          rms(c)
DAV:   1    -0.234562794236E+03    0.16668E-03   -0.33794E-02  3328   0.483E-01    0.698E-02
DAV:   2    -0.234563002427E+03   -0.20819E-03   -0.23737E-03  4616   0.161E-01    0.308E-02
DAV:   3    -0.234562998563E+03    0.38639E-05   -0.77374E-05  5608   0.277E-02    0.227E-02
DAV:   4    -0.234562995521E+03    0.30423E-05   -0.93796E-06  4344   0.865E-03    0.109E-02
DAV:   5    -0.234562994587E+03    0.93430E-06   -0.51409E-06  3016   0.605E-03
 122 F= -.23456299E+03 E0= -.23456299E+03  d E =-.836521E-04
       N       E                     dE             d eps       ncg     rms          rms(c)
DAV:   1    -0.234563010025E+03   -0.14504E-04   -0.50076E-03  3560   0.242E-01    0.330E-02
DAV:   2    -0.234563030622E+03   -0.20597E-04   -0.44225E-04  3936   0.560E-02    0.146E-02
DAV:   3    -0.234563027659E+03    0.29632E-05   -0.28213E-05  5392   0.154E-02    0.962E-03
DAV:   4    -0.234563027585E+03    0.73334E-07   -0.24712E-06  2608   0.749E-03
 123 F= -.23456303E+03 E0= -.23456303E+03  d E =-.329985E-04
       N       E                     dE             d eps       ncg     rms          rms(c)
DAV:   1    -0.234562861806E+03    0.16585E-03   -0.42411E-02  3568   0.707E-01    0.952E-02
DAV:   2    -0.234563047156E+03   -0.18535E-03   -0.37321E-03  3928   0.161E-01    0.428E-02
DAV:   3    -0.234563024343E+03    0.22813E-04   -0.23807E-04  5552   0.449E-02    0.286E-02
DAV:   4    -0.234563019566E+03    0.47770E-05   -0.36890E-05  5248   0.216E-02    0.117E-02
DAV:   5    -0.234563021488E+03   -0.19217E-05   -0.34023E-06  2752   0.639E-03    0.591E-03
DAV:   6    -0.234563023579E+03   -0.20912E-05   -0.15346E-06  2000   0.632E-03    0.396E-03
DAV:   7    -0.234563024224E+03   -0.64452E-06   -0.69098E-07  1960   0.432E-03
 124 F= -.23456302E+03 E0= -.23456302E+03  d E =-.296370E-04
       N       E                     dE             d eps       ncg     rms          rms(c)
DAV:   1    -0.234563018353E+03    0.52259E-05   -0.77329E-03  3568   0.302E-01    0.409E-02
DAV:   2    -0.234563056077E+03   -0.37724E-04   -0.67952E-04  3944   0.690E-02    0.188E-02
DAV:   3    -0.234563052158E+03    0.39184E-05   -0.40471E-05  5384   0.187E-02    0.124E-02
DAV:   4    -0.234563049047E+03    0.31110E-05   -0.49221E-06  3360   0.920E-03    0.497E-03
DAV:   5    -0.234563048131E+03    0.91605E-06   -0.21290E-06  2144   0.499E-03
 125 F= -.23456305E+03 E0= -.23456305E+03  d E =-.535448E-04
       N       E                     dE             d eps       ncg     rms          rms(c)
DAV:   1    -0.234563044074E+03    0.49735E-05   -0.10828E-03  3544   0.113E-01    0.151E-02
DAV:   2    -0.234563049821E+03   -0.57469E-05   -0.97615E-05  4000   0.267E-02    0.654E-03
DAV:   3    -0.234563049213E+03    0.60818E-06   -0.57301E-06  3752   0.742E-03
 126 F= -.23456305E+03 E0= -.23456305E+03  d E =-.546261E-04
       N       E                     dE             d eps       ncg     rms          rms(c)
DAV:   1    -0.234563052365E+03   -0.25438E-05   -0.76059E-03  3496   0.212E-01    0.284E-02
DAV:   2    -0.234563084617E+03   -0.32253E-04   -0.43558E-04  4568   0.572E-02    0.137E-02
DAV:   3    -0.234563082378E+03    0.22392E-05   -0.14614E-05  5320   0.110E-02    0.103E-02
DAV:   4    -0.234563080590E+03    0.17879E-05   -0.22120E-06  2424   0.562E-03    0.426E-03
DAV:   5    -0.234563079872E+03    0.71819E-06   -0.15125E-06  1888   0.500E-03
 127 F= -.23456308E+03 E0= -.23456308E+03  d E =-.306594E-04
       N       E                     dE             d eps       ncg     rms          rms(c)
DAV:   1    -0.234562865857E+03    0.21473E-03   -0.68046E-02  3496   0.634E-01    0.840E-02
DAV:   2    -0.234563146080E+03   -0.28022E-03   -0.38662E-03  4560   0.169E-01    0.393E-02
DAV:   3    -0.234563129349E+03    0.16731E-04   -0.14964E-04  5776   0.333E-02    0.294E-02
DAV:   4    -0.234563120936E+03    0.84129E-05   -0.27456E-05  5056   0.166E-02    0.112E-02
DAV:   5    -0.234563117949E+03    0.29873E-05   -0.34622E-06  2536   0.578E-03    0.484E-03
DAV:   6    -0.234563116194E+03    0.17542E-05   -0.17365E-06  2128   0.556E-03    0.219E-03
DAV:   7    -0.234563115794E+03    0.40039E-06   -0.95649E-07  1936   0.495E-03
 128 F= -.23456312E+03 E0= -.23456312E+03  d E =-.665813E-04
       N       E                     dE             d eps       ncg     rms          rms(c)
DAV:   1    -0.234563118835E+03   -0.26406E-05   -0.35248E-03  3368   0.129E-01    0.180E-02
DAV:   2    -0.234563134944E+03   -0.16109E-04   -0.18635E-04  4448   0.392E-02    0.679E-03
DAV:   3    -0.234563134788E+03    0.15598E-06   -0.62116E-06  4256   0.739E-03
 129 F= -.23456313E+03 E0= -.23456313E+03  d E =-.189941E-04
       N       E                     dE             d eps       ncg     rms          rms(c)
DAV:   1    -0.234563062468E+03    0.72476E-04   -0.31953E-02  3368   0.387E-01    0.521E-02
DAV:   2    -0.234563202939E+03   -0.14047E-03   -0.15793E-03  4456   0.116E-01    0.246E-02
DAV:   3    -0.234563201097E+03    0.18421E-05   -0.58302E-05  5704   0.214E-02    0.190E-02
DAV:   4    -0.234563199428E+03    0.16694E-05   -0.64547E-06  3992   0.744E-03    0.936E-03
DAV:   5    -0.234563198350E+03    0.10776E-05   -0.38341E-06  2864   0.520E-03    0.251E-03
DAV:   6    -0.234563198184E+03    0.16609E-06   -0.76813E-07  1960   0.362E-03
 130 F= -.23456320E+03 E0= -.23456320E+03  d E =-.823902E-04
       N       E                     dE             d eps       ncg     rms          rms(c)
DAV:   1    -0.234562801872E+03    0.39648E-03   -0.12793E-01  3368   0.775E-01    0.108E-01
DAV:   2    -0.234563367589E+03   -0.56572E-03   -0.64390E-03  4416   0.233E-01    0.467E-02
DAV:   3    -0.234563360496E+03    0.70928E-05   -0.22998E-04  5704   0.429E-02    0.360E-02
DAV:   4    -0.234563355081E+03    0.54148E-05   -0.26761E-05  4976   0.143E-02    0.172E-02
DAV:   5    -0.234563352131E+03    0.29498E-05   -0.11585E-05  4632   0.893E-03    0.540E-03
DAV:   6    -0.234563351790E+03    0.34142E-06   -0.18033E-06  2272   0.373E-03
 131 F= -.23456335E+03 E0= -.23456335E+03  d E =-.235996E-03
       N       E                     dE             d eps       ncg     rms          rms(c)
DAV:   1    -0.234561375140E+03    0.19770E-02   -0.51182E-01  3360   0.155E+00    0.217E-01
DAV:   2    -0.234563627805E+03   -0.22527E-02   -0.25633E-02  4392   0.465E-01    0.942E-02
DAV:   3    -0.234563602734E+03    0.25071E-04   -0.95330E-04  5768   0.859E-02    0.723E-02
DAV:   4    -0.234563581380E+03    0.21354E-04   -0.10510E-04  5400   0.288E-02    0.348E-02
DAV:   5    -0.234563571194E+03    0.10186E-04   -0.48047E-05  5032   0.172E-02    0.106E-02
DAV:   6    -0.234563571017E+03    0.17734E-06   -0.82945E-06  3488   0.667E-03
 132 F= -.23456357E+03 E0= -.23456357E+03  d E =-.455223E-03
       N       E                     dE             d eps       ncg     rms          rms(c)
DAV:   1    -0.234563582512E+03   -0.11318E-04   -0.20029E-03  3280   0.821E-02    0.149E-02
DAV:   2    -0.234563589440E+03   -0.69281E-05   -0.80433E-05  4800   0.258E-02    0.508E-03
DAV:   3    -0.234563589273E+03    0.16689E-06   -0.25446E-06  2688   0.496E-03
 133 F= -.23456359E+03 E0= -.23456359E+03  d E =-.182561E-04
       N       E                     dE             d eps       ncg     rms          rms(c)
DAV:   1    -0.234563576861E+03    0.12578E-04   -0.17909E-02  3304   0.245E-01    0.373E-02
DAV:   2    -0.234563638211E+03   -0.61350E-04   -0.68246E-04  4696   0.744E-02    0.167E-02
DAV:   3    -0.234563638367E+03   -0.15604E-06   -0.29817E-05  5288   0.138E-02    0.124E-02
DAV:   4    -0.234563637810E+03    0.55665E-06   -0.20920E-06  2384   0.508E-03
 134 F= -.23456364E+03 E0= -.23456364E+03  d E =-.667935E-04
       N       E                     dE             d eps       ncg     rms          rms(c)
DAV:   1    -0.234563432638E+03    0.20573E-03   -0.71678E-02  3296   0.490E-01    0.762E-02
DAV:   2    -0.234563677724E+03   -0.24509E-03   -0.27438E-03  4632   0.151E-01    0.326E-02
DAV:   3    -0.234563678202E+03   -0.47741E-06   -0.11586E-04  5520   0.280E-02    0.240E-02
DAV:   4    -0.234563676561E+03    0.16405E-05   -0.12193E-05  4760   0.946E-03    0.117E-02
DAV:   5    -0.234563675637E+03    0.92487E-06   -0.41154E-06  3136   0.572E-03
 135 F= -.23456368E+03 E0= -.23456368E+03  d E =-.104620E-03
       N       E                     dE             d eps       ncg     rms          rms(c)
DAV:   1    -0.234563725245E+03   -0.48683E-04   -0.61751E-04  3440   0.900E-02    0.733E-03
DAV:   2    -0.234563729331E+03   -0.40862E-05   -0.53105E-05  4072   0.182E-02    0.325E-03
DAV:   3    -0.234563729190E+03    0.14057E-06   -0.18543E-06  2824   0.463E-03
 136 F= -.23456373E+03 E0= -.23456373E+03  d E =-.535539E-04
       N       E                     dE             d eps       ncg     rms          rms(c)
DAV:   1    -0.234563833353E+03   -0.10402E-03   -0.55265E-03  3424   0.270E-01    0.201E-02
DAV:   2    -0.234563872634E+03   -0.39281E-04   -0.47292E-04  4080   0.533E-02    0.874E-03
DAV:   3    -0.234563872970E+03   -0.33596E-06   -0.21787E-05  5096   0.136E-02    0.639E-03
DAV:   4    -0.234563872681E+03    0.28843E-06   -0.13760E-06  2184   0.443E-03
 137 F= -.23456387E+03 E0= -.23456387E+03  d E =-.197045E-03
       N       E                     dE             d eps       ncg     rms          rms(c)
DAV:   1    -0.234563917798E+03   -0.44828E-04   -0.22096E-02  3424   0.540E-01    0.405E-02
DAV:   2    -0.234564074936E+03   -0.15714E-03   -0.18861E-03  4072   0.106E-01    0.174E-02
DAV:   3    -0.234564076662E+03   -0.17260E-05   -0.87248E-05  5504   0.270E-02    0.124E-02
DAV:   4    -0.234564075456E+03    0.12059E-05   -0.77061E-06  4264   0.823E-03    0.608E-03
DAV:   5    -0.234564076065E+03   -0.60841E-06   -0.24817E-06  2264   0.487E-03
 138 F= -.23456408E+03 E0= -.23456408E+03  d E =-.400428E-03
       N       E                     dE             d eps       ncg     rms          rms(c)
DAV:   1    -0.234563490095E+03    0.58536E-03   -0.88764E-02  3440   0.108E+00    0.818E-02
DAV:   2    -0.234564131513E+03   -0.64142E-03   -0.76177E-03  4080   0.214E-01    0.346E-02
DAV:   3    -0.234564137056E+03   -0.55435E-05   -0.33620E-04  5472   0.537E-02    0.250E-02
DAV:   4    -0.234564130832E+03    0.62246E-05   -0.34004E-05  5208   0.165E-02    0.118E-02
DAV:   5    -0.234564131568E+03   -0.73616E-06   -0.84268E-06  4064   0.800E-03
 139 F= -.23456413E+03 E0= -.23456413E+03  d E =-.455931E-03
       N       E                     dE             d eps       ncg     rms          rms(c)
DAV:   1    -0.234564081495E+03    0.49337E-04   -0.11782E-02  3456   0.395E-01    0.289E-02
DAV:   2    -0.234564168638E+03   -0.87143E-04   -0.99801E-04  3992   0.778E-02    0.130E-02
DAV:   3    -0.234564169929E+03   -0.12912E-05   -0.44779E-05  5448   0.197E-02    0.981E-03
DAV:   4    -0.234564168486E+03    0.14435E-05   -0.36749E-06  3152   0.611E-03    0.458E-03
DAV:   5    -0.234564168064E+03    0.42199E-06   -0.23444E-06  2216   0.514E-03
 140 F= -.23456417E+03 E0= -.23456417E+03  d E =-.492427E-03
       N       E                     dE             d eps       ncg     rms          rms(c)
DAV:   1    -0.234564223907E+03   -0.55421E-04   -0.40990E-03  3328   0.208E-01    0.191E-02
DAV:   2    -0.234564249351E+03   -0.25443E-04   -0.30792E-04  4304   0.489E-02    0.915E-03
DAV:   3    -0.234564248679E+03    0.67125E-06   -0.10361E-05  4376   0.987E-03    0.662E-03
DAV:   4    -0.234564248179E+03    0.50043E-06   -0.17456E-06  2096   0.413E-03
 141 F= -.23456425E+03 E0= -.23456425E+03  d E =-.801151E-04
       N       E                     dE             d eps       ncg     rms          rms(c)
DAV:   1    -0.234564150041E+03    0.98638E-04   -0.36690E-02  3328   0.621E-01    0.568E-02
DAV:   2    -0.234564381713E+03   -0.23167E-03   -0.27431E-03  4336   0.145E-01    0.248E-02
DAV:   3    -0.234564378718E+03    0.29945E-05   -0.10001E-04  5592   0.292E-02    0.190E-02
DAV:   4    -0.234564376236E+03    0.24825E-05   -0.11901E-05  4648   0.101E-02    0.830E-03
DAV:   5    -0.234564376472E+03   -0.23645E-06   -0.26929E-06  2288   0.560E-03
 142 F= -.23456438E+03 E0= -.23456438E+03  d E =-.208408E-03
       N       E                     dE             d eps       ncg     rms          rms(c)
DAV:   1    -0.234564361002E+03    0.15233E-04   -0.33519E-03  3336   0.188E-01    0.180E-02
DAV:   2    -0.234564382135E+03   -0.21132E-04   -0.25690E-04  4352   0.438E-02    0.720E-03
DAV:   3    -0.234564381892E+03    0.24262E-06   -0.89466E-06  4272   0.904E-03
 143 F= -.23456438E+03 E0= -.23456438E+03  d E =-.213828E-03
       N       E                     dE             d eps       ncg     rms          rms(c)
DAV:   1    -0.234564386811E+03   -0.46765E-05   -0.42066E-03  3392   0.230E-01    0.239E-02
DAV:   2    -0.234564427790E+03   -0.40979E-04   -0.45814E-04  4280   0.631E-02    0.109E-02
DAV:   3    -0.234564427519E+03    0.27122E-06   -0.15762E-05  5088   0.120E-02    0.846E-03
DAV:   4    -0.234564427054E+03    0.46423E-06   -0.10167E-06  2040   0.376E-03
 144 F= -.23456443E+03 E0= -.23456443E+03  d E =-.451625E-04
       N       E                     dE             d eps       ncg     rms          rms(c)
DAV:   1    -0.234564323824E+03    0.10369E-03   -0.13847E-02  3392   0.417E-01    0.439E-02
DAV:   2    -0.234564457735E+03   -0.13391E-03   -0.15220E-03  4248   0.113E-01    0.188E-02
DAV:   3    -0.234564456791E+03    0.94463E-06   -0.52411E-05  5640   0.219E-02    0.149E-02
DAV:   4    -0.234564455258E+03    0.15325E-05   -0.32680E-06  2960   0.626E-03    0.821E-03
DAV:   5    -0.234564454633E+03    0.62563E-06   -0.84777E-06  3416   0.697E-03
 145 F= -.23456445E+03 E0= -.23456445E+03  d E =-.727407E-04
       N       E                     dE             d eps       ncg     rms          rms(c)
DAV:   1    -0.234564443146E+03    0.12112E-04   -0.57277E-03  3328   0.225E-01    0.357E-02
DAV:   2    -0.234564490837E+03   -0.47691E-04   -0.54810E-04  4320   0.768E-02    0.157E-02
DAV:   3    -0.234564489590E+03    0.12470E-05   -0.16013E-05  5200   0.140E-02    0.115E-02
DAV:   4    -0.234564488505E+03    0.10851E-05   -0.14587E-06  2016   0.455E-03    0.555E-03
DAV:   5    -0.234564488061E+03    0.44474E-06   -0.22859E-06  2320   0.503E-03
 146 F= -.23456449E+03 E0= -.23456449E+03  d E =-.334280E-04
       N       E                     dE             d eps       ncg     rms          rms(c)
DAV:   1    -0.234564152733E+03    0.33577E-03   -0.42425E-02  3328   0.614E-01    0.934E-02
DAV:   2    -0.234564500193E+03   -0.34746E-03   -0.39784E-03  4280   0.205E-01    0.437E-02
DAV:   3    -0.234564491225E+03    0.89682E-05   -0.12043E-04  5584   0.378E-02    0.323E-02
DAV:   4    -0.234564484244E+03    0.69808E-05   -0.18087E-05  4936   0.119E-02    0.154E-02
DAV:   5    -0.234564481752E+03    0.24919E-05   -0.83921E-06  3760   0.795E-03    0.403E-03
DAV:   6    -0.234564481559E+03    0.19364E-06   -0.16083E-06  2072   0.424E-03
 147 F= -.23456448E+03 E0= -.23456448E+03  d E =-.269260E-04
       N       E                     dE             d eps       ncg     rms          rms(c)
DAV:   1    -0.234564426988E+03    0.54764E-04   -0.95058E-03  3328   0.290E-01    0.427E-02
DAV:   2    -0.234564505587E+03   -0.78600E-04   -0.89480E-04  4272   0.983E-02    0.222E-02
DAV:   3    -0.234564503311E+03    0.22761E-05   -0.25922E-05  5456   0.181E-02    0.164E-02
DAV:   4    -0.234564501604E+03    0.17078E-05   -0.32201E-06  2648   0.558E-03    0.834E-03
DAV:   5    -0.234564501554E+03    0.49058E-07   -0.44719E-06  2992   0.526E-03
 148 F= -.23456450E+03 E0= -.23456450E+03  d E =-.469220E-04
       N       E                     dE             d eps       ncg     rms          rms(c)
DAV:   1    -0.234564486031E+03    0.15572E-04   -0.48435E-03  3472   0.205E-01    0.337E-02
DAV:   2    -0.234564525622E+03   -0.39590E-04   -0.54536E-04  4280   0.690E-02    0.180E-02
DAV:   3    -0.234564522514E+03    0.31081E-05   -0.13890E-05  5000   0.126E-02    0.133E-02
DAV:   4    -0.234564521232E+03    0.12814E-05   -0.58777E-06  3584   0.660E-03    0.497E-03
DAV:   5    -0.234564521958E+03   -0.72604E-06   -0.97485E-07  1872   0.332E-03
 149 F= -.23456452E+03 E0= -.23456452E+03  d E =-.204037E-04
       N       E                     dE             d eps       ncg     rms          rms(c)
DAV:   1    -0.234564466276E+03    0.54956E-04   -0.80215E-03  3472   0.264E-01    0.445E-02
DAV:   2    -0.234564532528E+03   -0.66252E-04   -0.91508E-04  4320   0.884E-02    0.217E-02
DAV:   3    -0.234564527482E+03    0.50461E-05   -0.24234E-05  5472   0.162E-02    0.161E-02
DAV:   4    -0.234564525667E+03    0.18157E-05   -0.78653E-06  4280   0.797E-03    0.593E-03
DAV:   5    -0.234564526468E+03   -0.80118E-06   -0.92523E-07  1960   0.322E-03
 150 F= -.23456453E+03 E0= -.23456453E+03  d E =-.249134E-04
       N       E                     dE             d eps       ncg     rms          rms(c)
DAV:   1    -0.234564477166E+03    0.48501E-04   -0.75238E-03  3328   0.282E-01    0.378E-02
DAV:   2    -0.234564546670E+03   -0.69505E-04   -0.79861E-04  4464   0.916E-02    0.155E-02
DAV:   3    -0.234564545199E+03    0.14715E-05   -0.22073E-05  5352   0.163E-02    0.117E-02
DAV:   4    -0.234564544147E+03    0.10522E-05   -0.17732E-06  2288   0.449E-03    0.651E-03
DAV:   5    -0.234564543940E+03    0.20698E-06   -0.57938E-06  3432   0.581E-03
 151 F= -.23456454E+03 E0= -.23456454E+03  d E =-.174720E-04
