********************************************************************************
*                       GENERAL UTILITY LATTICE PROGRAM                        *
*                                 Julian Gale                                  *
*                       Curtin Institute for Computation                       *
*                    School of Molecular and Life Sciences                     *
*                    Curtin University, Western Australia                      *
********************************************************************************
* Version = 5.2.0 * Last modified =   1st June 2020                            *
********************************************************************************
*  optimise     - perform optimisation run                                     *
*  conp         - constant pressure calculation                                *
*  compare      - compare initial and final structures                         *
********************************************************************************

  Job Started  at 12:41.38 28th July       2022                               

  Number of CPUs =     1


  Total number of configurations input =      1

********************************************************************************
*  Input for Configuration =   1                                               *
********************************************************************************

  Formula = Li6Sc2Cl12                                                  

  Number of irreducible atoms/shells =      32


  Total number atoms/shells =      32

  Dimensionality = 3               :  Bulk   



  Cartesian lattice vectors (Angstroms) :

        6.398000    0.000000    0.000000
        0.000000   11.040000    0.000000
       -2.174317    0.000000    6.009761

  Cell parameters (Angstroms/Degrees):

  a =       6.3980    alpha =  90.0000
  b =      11.0400    beta  = 109.8900
  c =       6.3910    gamma =  90.0000

  Initial cell volume =         424.492978 Angs**3

  Temperature of configuration =   0.00     K 

  Pressure of configuration =         0.000 GPa 

  Fractional coordinates of asymmetric unit :

--------------------------------------------------------------------------------
   No.  Atomic       x           y          z         Charge      Occupancy
        Label      (Frac)      (Frac)     (Frac)        (e)         (Frac)  
--------------------------------------------------------------------------------
      1 Li    c    0.500000    0.834700    0.000000     1.00000    1.000000    
      2 Li    c    0.500000 *  0.165300 *  0.000000 *   1.00000    1.000000    
      3 Li    c    0.000000 *  0.334700 *  0.000000 *   1.00000    1.000000    
      4 Li    c    0.000000 *  0.665300 *  0.000000 *   1.00000    1.000000    
      5 Li    c    0.500000 *  0.331000 *  0.500000 *   1.00000    1.000000    
      6 Li    c    0.000000 *  0.500000 *  0.500000 *   1.00000    1.000000    
      7 Sc    c    0.000000 *  0.000000 *  0.000000 *   3.00000    1.000000    
      8 Sc    c    0.500000 *  0.500000 *  0.000000 *   3.00000    1.000000    
      9 Cl    c    0.757900 *  0.000000 *  0.231300 *   1.48500    1.000000    
     10 Cl    c    0.242100 *  0.000000 *  0.768700 *   1.48500    1.000000    
     11 Cl    c    0.257900 *  0.500000 *  0.231300 *   1.48500    1.000000    
     12 Cl    c    0.742100 *  0.500000 *  0.768700 *   1.48500    1.000000    
     13 Cl    c    0.238700 *  0.839100 *  0.237100 *   1.48500    1.000000    
     14 Cl    c    0.761300 *  0.839100 *  0.762900 *   1.48500    1.000000    
     15 Cl    c    0.761300 *  0.160900 *  0.762900 *   1.48500    1.000000    
     16 Cl    c    0.238700 *  0.160900 *  0.237100 *   1.48500    1.000000    
     17 Cl    c    0.738700 *  0.339100 *  0.237100 *   1.48500    1.000000    
     18 Cl    c    0.261300 *  0.339100 *  0.762900 *   1.48500    1.000000    
     19 Cl    c    0.261300 *  0.660900 *  0.762900 *   1.48500    1.000000    
     20 Cl    c    0.738700 *  0.660900 *  0.237100 *   1.48500    1.000000    
     21 Cl    s    0.757900 *  0.000000 *  0.231300 *  -2.48500    1.000000    
     22 Cl    s    0.242100 *  0.000000 *  0.768700 *  -2.48500    1.000000    
     23 Cl    s    0.257900 *  0.500000 *  0.231300 *  -2.48500    1.000000    
     24 Cl    s    0.742100 *  0.500000 *  0.768700 *  -2.48500    1.000000    
     25 Cl    s    0.238700 *  0.839100 *  0.237100 *  -2.48500    1.000000    
     26 Cl    s    0.761300 *  0.839100 *  0.762900 *  -2.48500    1.000000    
     27 Cl    s    0.761300 *  0.160900 *  0.762900 *  -2.48500    1.000000    
     28 Cl    s    0.238700 *  0.160900 *  0.237100 *  -2.48500    1.000000    
     29 Cl    s    0.738700 *  0.339100 *  0.237100 *  -2.48500    1.000000    
     30 Cl    s    0.261300 *  0.339100 *  0.762900 *  -2.48500    1.000000    
     31 Cl    s    0.261300 *  0.660900 *  0.762900 *  -2.48500    1.000000    
     32 Cl    s    0.738700 *  0.660900 *  0.237100 *  -2.48500    1.000000    
--------------------------------------------------------------------------------



********************************************************************************
*  General input information                                                   *
********************************************************************************

  Species output for all configurations : 

--------------------------------------------------------------------------------
  Species    Type    Atomic    Atomic    Charge       Radii (Angs)     Library
                     Number     Mass       (e)     Cova   Ionic  VDW   Symbol
--------------------------------------------------------------------------------
    Li       Core        3       6.94   1.000000   0.680  0.000  1.800          
    Sc       Core       21      44.96   3.000000   1.440  0.000  2.150          
    Cl       Core       17      35.45   1.485000   0.990  0.000  1.650          
    Cl       Shell      17       0.00  -2.485000   0.990  0.000  1.650          
--------------------------------------------------------------------------------


  Lattice summation method               =    Ewald          (3-D)
                                         =    Parry          (2-D)
                                         =    Saunders et al (1-D)
  Accuracy factor for lattice sums       =   12.000


  Analytic derivatives to be used

  Time limit = Infinity

  Maximum range for interatomic potentials =    100000.000000 Angstroms

  General interatomic potentials :

--------------------------------------------------------------------------------
Atom  Types   Potential      Parameter       Value         Units   Cutoffs(Ang)
  1     2                                                            Min /  Max 
--------------------------------------------------------------------------------
Cl   c Cl   s Spring (c-s)  Spring k 2       36.070000    eV*Ang^-2 0.000  0.800
                            Spring k 4       0.0000000    eV*Ang^-4 
--------------------------------------------------------------------------------
Li   c Li   c Buckingham    Buckingham A     360.53000    eV        0.000 12.000
                            Buckingham rho  0.16100000    Ang       
                            Buckingham C     0.0000000    eV*Ang^6  
--------------------------------------------------------------------------------
Li   c Cl   s Buckingham    Buckingham A     421.04000    eV        0.000 12.000
                            Buckingham rho  0.33400000    Ang       
                            Buckingham C     0.0000000    eV*Ang^6  
--------------------------------------------------------------------------------
Sc   c Cl   s Buckingham    Buckingham A     2456.2200    eV        0.000 12.000
                            Buckingham rho  0.31470000    Ang       
                            Buckingham C     0.0000000    eV*Ang^6  
--------------------------------------------------------------------------------
Cl   s Cl   s Buckingham    Buckingham A     1227.2000    eV        0.000 12.000
                            Buckingham rho  0.32100000    Ang       
                            Buckingham C     14.530000    eV*Ang^6  
--------------------------------------------------------------------------------

********************************************************************************
*  Output for configuration   1                                                *
********************************************************************************


  Components of energy : 

--------------------------------------------------------------------------------
  Interatomic potentials     =          17.53270311 eV    
  Monopole - monopole (real) =         -64.17772209 eV    
  Monopole - monopole (recip)=         -88.62392090 eV    
  Monopole - monopole (total)=        -152.80164299 eV    
--------------------------------------------------------------------------------
  Total lattice energy       =        -135.26893987 eV    
--------------------------------------------------------------------------------
  Total lattice energy       =          -13051.3849 kJ/(mole unit cells)
--------------------------------------------------------------------------------


  Number of variables =       99

  Maximum number of calculations  =          1000
  Maximum Hessian update interval =            10
  Maximum step size               =   1.000000000
  Maximum parameter tolerance     =   0.000010000
  Maximum function  tolerance     =   0.000010000
  Maximum gradient  tolerance     =   0.001000000
  Maximum gradient  component     =   0.010000000

  Symmetry not applied to optimisation

  Cell parameters to be optimised using strains

  Newton-Raphson optimiser to be used

  BFGS hessian update to be used

  Lower half triangular hessian to be used

  Start of bulk optimisation :

  Cycle:      0 Energy:      -135.268940  Gnorm:      3.351678  CPU:    0.032
  ** Hessian calculated **
  Cycle:      1 Energy:      -142.675335  Gnorm:      0.983105  CPU:    0.053
  ** Hessian calculated **
  Cycle:      2 Energy:      -144.149675  Gnorm:      0.645565  CPU:    0.076
  Cycle:      3 Energy:      -145.102630  Gnorm:      0.310018  CPU:    0.089
  Cycle:      4 Energy:      -145.435866  Gnorm:      0.221204  CPU:    0.098
  ** Hessian calculated **
  Cycle:      5 Energy:      -145.525206  Gnorm:      0.227356  CPU:    0.116
  ** Hessian calculated **
  Cycle:      6 Energy:      -145.696227  Gnorm:      0.295954  CPU:    0.142
  ** Hessian calculated **
  Cycle:      7 Energy:      -145.763845  Gnorm:      0.106165  CPU:    0.164
  Cycle:      8 Energy:      -145.781273  Gnorm:      0.078614  CPU:    0.179
  Cycle:      9 Energy:      -145.806991  Gnorm:      0.098880  CPU:    0.195
  Cycle:     10 Energy:      -145.823058  Gnorm:      0.073883  CPU:    0.211
  Cycle:     11 Energy:      -145.843766  Gnorm:      0.064993  CPU:    0.229
  Cycle:     12 Energy:      -145.854096  Gnorm:      0.063994  CPU:    0.242
  Cycle:     13 Energy:      -145.876706  Gnorm:      0.072678  CPU:    0.258
  Cycle:     14 Energy:      -145.895370  Gnorm:      0.051115  CPU:    0.273
  Cycle:     15 Energy:      -145.921388  Gnorm:      0.096714  CPU:    0.289
  Cycle:     16 Energy:      -145.935187  Gnorm:      0.055201  CPU:    0.301
  ** Hessian calculated **
  Cycle:     17 Energy:      -146.029225  Gnorm:      0.041227  CPU:    0.331
  Cycle:     18 Energy:      -146.080416  Gnorm:      0.045388  CPU:    0.347
  Cycle:     19 Energy:      -146.089441  Gnorm:      0.025807  CPU:    0.363
  Cycle:     20 Energy:      -146.093777  Gnorm:      0.010720  CPU:    0.379
  Cycle:     21 Energy:      -146.095151  Gnorm:      0.003423  CPU:    0.391
  Cycle:     22 Energy:      -146.095302  Gnorm:      0.002398  CPU:    0.407
  Cycle:     23 Energy:      -146.095312  Gnorm:      0.002090  CPU:    0.420
  Cycle:     24 Energy:      -146.095339  Gnorm:      0.000800  CPU:    0.436


  **** Optimisation achieved ****


  Final energy =    -146.09534590 eV
  Final Gnorm  =       0.00027348

  Components of energy : 

--------------------------------------------------------------------------------
  Interatomic potentials     =          28.16568493 eV    
  Monopole - monopole (real) =         138.11288513 eV    
  Monopole - monopole (recip)=        -312.37391596 eV    
  Monopole - monopole (total)=        -174.26103083 eV    
--------------------------------------------------------------------------------
  Total lattice energy       =        -146.09534590 eV    
--------------------------------------------------------------------------------
  Total lattice energy       =          -14095.9676 kJ/(mole unit cells)
--------------------------------------------------------------------------------

  Final fractional coordinates of atoms :

--------------------------------------------------------------------------------
   No.  Atomic        x           y          z          Radius
        Label       (Frac)      (Frac)     (Frac)       (Angs) 
--------------------------------------------------------------------------------
     1  Li    c     0.500000    0.834700    0.000000    0.000000
     2  Li    c     0.499999    0.162034    0.000000    0.000000
     3  Li    c     0.999994    0.334683    0.999994    0.000000
     4  Li    c     0.999993    0.662039    0.999994    0.000000
     5  Li    c     0.499982    0.998350    0.499990    0.000000
     6  Li    c     0.000007    0.498349    0.500002    0.000000
     7  Sc    c     0.999997    0.998387    0.999997    0.000000
     8  Sc    c     0.499995    0.498373    0.999997    0.000000
     9  Cl    c     0.742424    0.998375    0.224973    0.000000
    10  Cl    c     0.257573    0.998374    0.775025    0.000000
    11  Cl    c     0.242428    0.498366    0.224987    0.000000
    12  Cl    c     0.757560    0.498364    0.775004    0.000000
    13  Cl    c     0.241322    0.845892    0.224308    0.000000
    14  Cl    c     0.758675    0.845889    0.775688    0.000000
    15  Cl    c     0.758674    0.150885    0.775715    0.000000
    16  Cl    c     0.241321    0.150885    0.224284    0.000000
    17  Cl    c     0.741329    0.345878    0.224299    0.000000
    18  Cl    c     0.258664    0.345875    0.775696    0.000000
    19  Cl    c     0.258658    0.650872    0.775714    0.000000
    20  Cl    c     0.741326    0.650878    0.224272    0.000000
    21  Cl    s     0.746787    0.998376    0.208052    0.000000
    22  Cl    s     0.253209    0.998374    0.791945    0.000000
    23  Cl    s     0.246790    0.498367    0.208070    0.000000
    24  Cl    s     0.753198    0.498365    0.791921    0.000000
    25  Cl    s     0.232116    0.855404    0.206664    0.000000
    26  Cl    s     0.767881    0.855400    0.793333    0.000000
    27  Cl    s     0.767894    0.141377    0.793373    0.000000
    28  Cl    s     0.232102    0.141376    0.206627    0.000000
    29  Cl    s     0.732116    0.355389    0.206647    0.000000
    30  Cl    s     0.267876    0.355386    0.793347    0.000000
    31  Cl    s     0.267872    0.641363    0.793369    0.000000
    32  Cl    s     0.732111    0.641369    0.206616    0.000000
--------------------------------------------------------------------------------

  Final Cartesian lattice vectors (Angstroms) :

        6.336534    0.000005    0.052985
        0.000011   11.481574   -0.000038
       -2.001492   -0.000022    6.148611


  Final cell parameters and derivatives :

--------------------------------------------------------------------------------
       a            6.336756 Angstrom     dE/de1(xx)     0.003244 eV/strain
       b           11.481574 Angstrom     dE/de2(yy)     0.001578 eV/strain
       c            6.466172 Angstrom     dE/de3(zz)     0.000428 eV/strain
       alpha       90.000396 Degrees      dE/de4(yz)    -0.000030 eV/strain
       beta       107.551988 Degrees      dE/de5(xz)     0.002400 eV/strain
       gamma       89.999905 Degrees      dE/de6(xy)     0.000023 eV/strain
--------------------------------------------------------------------------------

  Primitive cell volume =           448.549864 Angs**3

  Density of cell =      2.061908 g/cm**3

  Non-primitive cell volume =           448.549864 Angs**3


  Final internal derivatives :

--------------------------------------------------------------------------------
   No.  Atomic          a             b             c           Radius
        Label          (eV)          (eV)          (eV)        (eV/Angs)
--------------------------------------------------------------------------------
      1 Li    c       0.000000      0.000000      0.000000      0.000000
      2 Li    c      -0.000046     -0.003672     -0.000042      0.000000
      3 Li    c       0.000048     -0.002314      0.000029      0.000000
      4 Li    c       0.000085      0.001786      0.000020      0.000000
      5 Li    c      -0.000289      0.001593     -0.000335      0.000000
      6 Li    c       0.000216     -0.000041      0.000229      0.000000
      7 Sc    c       0.000310      0.004870      0.000233      0.000000
      8 Sc    c      -0.000189      0.003049     -0.000157      0.000000
      9 Cl    c       0.000550      0.002639      0.004335      0.000000
     10 Cl    c      -0.000247      0.002557     -0.004099      0.000000
     11 Cl    c       0.003148      0.000060      0.001962      0.000000
     12 Cl    c      -0.003326      0.000008     -0.002097      0.000000
     13 Cl    c      -0.002984     -0.003634     -0.005685      0.000000
     14 Cl    c       0.003141     -0.004437      0.006022      0.000000
     15 Cl    c      -0.003054     -0.001556     -0.000064      0.000000
     16 Cl    c       0.002884     -0.001982      0.000003      0.000000
     17 Cl    c       0.000116     -0.002546      0.001082      0.000000
     18 Cl    c      -0.000031     -0.002535     -0.001036      0.000000
     19 Cl    c       0.000307     -0.001716     -0.000736      0.000000
     20 Cl    c      -0.000466     -0.000725      0.000486      0.000000
     21 Cl    s      -0.000907     -0.002830     -0.006378      0.000000
     22 Cl    s       0.000457     -0.002732      0.006259      0.000000
     23 Cl    s      -0.005329     -0.001730     -0.001122      0.000000
     24 Cl    s       0.005587     -0.001573      0.001182      0.000000
     25 Cl    s       0.004027      0.004927      0.006745      0.000000
     26 Cl    s      -0.004089      0.005373     -0.007097      0.000000
     27 Cl    s       0.003330      0.000140      0.002254      0.000000
     28 Cl    s      -0.003084      0.000413     -0.002182      0.000000
     29 Cl    s       0.001919      0.001819     -0.001438      0.000000
     30 Cl    s      -0.002103      0.001874      0.001401      0.000000
     31 Cl    s      -0.002273      0.001264      0.001616      0.000000
     32 Cl    s       0.002373      0.000818     -0.001433      0.000000
--------------------------------------------------------------------------------
  Maximum abs         0.005587      0.005373      0.007097      0.000000
--------------------------------------------------------------------------------

  Comparison of initial and final structures : 

--------------------------------------------------------------------------------
  Parameter   Initial value   Final value   Difference    Units      Percent
--------------------------------------------------------------------------------
    Volume       424.492978    448.549864    24.056886    Angs**3      5.67
    a              6.398000      6.336756    -0.061244    Angstroms   -0.96
    b             11.040000     11.481574     0.441574    Angstroms    4.00
    c              6.391000      6.466172     0.075172    Angstroms    1.18
    alpha         90.000000     90.000396     0.000396    Degrees      0.00
    beta         109.890000    107.551988    -2.338012    Degrees     -2.13
    gamma         90.000000     89.999905    -0.000095    Degrees     -0.00
      1 x          0.500000      0.500000     0.000000    Fractional   0.00
      1 y          0.834700      0.834700     0.000000    Fractional   0.00
      1 z          0.000000      0.000000     0.000000    Fractional   0.00
      2 x          0.500000      0.499999     0.000001    Fractional   0.00
      2 y          0.165300      0.162034     0.003266    Fractional   1.98
      2 z          0.000000      0.000000     0.000000    Fractional   0.00
      3 x          0.000000      0.999994     0.999994    Fractional   0.00
      3 y          0.334700      0.334683     0.000017    Fractional   0.01
      3 z          0.000000      0.999994     0.999994    Fractional   0.00
      4 x          0.000000      0.999993     0.999993    Fractional   0.00
      4 y          0.665300      0.662039     0.003261    Fractional   0.49
      4 z          0.000000      0.999994     0.999994    Fractional   0.00
      5 x          0.500000      0.499982     0.000018    Fractional   0.00
      5 y          0.331000      0.998350     0.332650    Fractional 100.50
      5 z          0.500000      0.499990     0.000010    Fractional   0.00
      6 x          0.000000      0.000007     0.000007    Fractional   0.00
      6 y          0.500000      0.498349     0.001651    Fractional   0.33
      6 z          0.500000      0.500002     0.000002    Fractional   0.00
      7 x          0.000000      0.999997     0.999997    Fractional   0.00
      7 y          0.000000      0.998387     0.998387    Fractional   0.00
      7 z          0.000000      0.999997     0.999997    Fractional   0.00
      8 x          0.500000      0.499995     0.000005    Fractional   0.00
      8 y          0.500000      0.498373     0.001627    Fractional   0.33
      8 z          0.000000      0.999997     0.999997    Fractional   0.00
      9 x          0.757900      0.742424     0.015476    Fractional   2.04
      9 y          0.000000      0.998375     0.998375    Fractional   0.00
      9 z          0.231300      0.224973     0.006327    Fractional   2.74
     10 x          0.242100      0.257573     0.015473    Fractional   6.39
     10 y          0.000000      0.998374     0.998374    Fractional   0.00
     10 z          0.768700      0.775025     0.006325    Fractional   0.82
     11 x          0.257900      0.242428     0.015472    Fractional   6.00
     11 y          0.500000      0.498366     0.001634    Fractional   0.33
     11 z          0.231300      0.224987     0.006313    Fractional   2.73
     12 x          0.742100      0.757560     0.015460    Fractional   2.08
     12 y          0.500000      0.498364     0.001636    Fractional   0.33
     12 z          0.768700      0.775004     0.006304    Fractional   0.82
     13 x          0.238700      0.241322     0.002622    Fractional   1.10
     13 y          0.839100      0.845892     0.006792    Fractional   0.81
     13 z          0.237100      0.224308     0.012792    Fractional   5.40
     14 x          0.761300      0.758675     0.002625    Fractional   0.34
     14 y          0.839100      0.845889     0.006789    Fractional   0.81
     14 z          0.762900      0.775688     0.012788    Fractional   1.68
     15 x          0.761300      0.758674     0.002626    Fractional   0.34
     15 y          0.160900      0.150885     0.010015    Fractional   6.22
     15 z          0.762900      0.775715     0.012815    Fractional   1.68
     16 x          0.238700      0.241321     0.002621    Fractional   1.10
     16 y          0.160900      0.150885     0.010015    Fractional   6.22
     16 z          0.237100      0.224284     0.012816    Fractional   5.41
     17 x          0.738700      0.741329     0.002629    Fractional   0.36
     17 y          0.339100      0.345878     0.006778    Fractional   2.00
     17 z          0.237100      0.224299     0.012801    Fractional   5.40
     18 x          0.261300      0.258664     0.002636    Fractional   1.01
     18 y          0.339100      0.345875     0.006775    Fractional   2.00
     18 z          0.762900      0.775696     0.012796    Fractional   1.68
     19 x          0.261300      0.258658     0.002642    Fractional   1.01
     19 y          0.660900      0.650872     0.010028    Fractional   1.52
     19 z          0.762900      0.775714     0.012814    Fractional   1.68
     20 x          0.738700      0.741326     0.002626    Fractional   0.36
     20 y          0.660900      0.650878     0.010022    Fractional   1.52
     20 z          0.237100      0.224272     0.012828    Fractional   5.41
     21 x          0.757900      0.746787     0.011113    Fractional   1.47
     21 y          0.000000      0.998376     0.998376    Fractional   0.00
     21 z          0.231300      0.208052     0.023248    Fractional  10.05
     22 x          0.242100      0.253209     0.011109    Fractional   4.59
     22 y          0.000000      0.998374     0.998374    Fractional   0.00
     22 z          0.768700      0.791945     0.023245    Fractional   3.02
     23 x          0.257900      0.246790     0.011110    Fractional   4.31
     23 y          0.500000      0.498367     0.001633    Fractional   0.33
     23 z          0.231300      0.208070     0.023230    Fractional  10.04
     24 x          0.742100      0.753198     0.011098    Fractional   1.50
     24 y          0.500000      0.498365     0.001635    Fractional   0.33
     24 z          0.768700      0.791921     0.023221    Fractional   3.02
     25 x          0.238700      0.232116     0.006584    Fractional   2.76
     25 y          0.839100      0.855404     0.016304    Fractional   1.94
     25 z          0.237100      0.206664     0.030436    Fractional  12.84
     26 x          0.761300      0.767881     0.006581    Fractional   0.86
     26 y          0.839100      0.855400     0.016300    Fractional   1.94
     26 z          0.762900      0.793333     0.030433    Fractional   3.99
     27 x          0.761300      0.767894     0.006594    Fractional   0.87
     27 y          0.160900      0.141377     0.019523    Fractional  12.13
     27 z          0.762900      0.793373     0.030473    Fractional   3.99
     28 x          0.238700      0.232102     0.006598    Fractional   2.76
     28 y          0.160900      0.141376     0.019524    Fractional  12.13
     28 z          0.237100      0.206627     0.030473    Fractional  12.85
     29 x          0.738700      0.732116     0.006584    Fractional   0.89
     29 y          0.339100      0.355389     0.016289    Fractional   4.80
     29 z          0.237100      0.206647     0.030453    Fractional  12.84
     30 x          0.261300      0.267876     0.006576    Fractional   2.52
     30 y          0.339100      0.355386     0.016286    Fractional   4.80
     30 z          0.762900      0.793347     0.030447    Fractional   3.99
     31 x          0.261300      0.267872     0.006572    Fractional   2.52
     31 y          0.660900      0.641363     0.019537    Fractional   2.96
     31 z          0.762900      0.793369     0.030469    Fractional   3.99
     32 x          0.738700      0.732111     0.006589    Fractional   0.89
     32 y          0.660900      0.641369     0.019531    Fractional   2.96
     32 z          0.237100      0.206616     0.030484    Fractional  12.86
--------------------------------------------------------------------------------


  Time to end of optimisation =       0.4491 seconds


  Peak dynamic memory used =       2.08 MB 


  Timing analysis for GULP :

--------------------------------------------------------------------------------
  Task / Subroutine                                          Time (Seconds)
--------------------------------------------------------------------------------
  Calculation of reciprocal space energy and derivatives          0.0290
  Calculation of real space energy and derivatives                0.4093
  Calculation and manipulation of Hessian matrix                  0.0002
  Calculation of matrix inversion                                 0.0015
--------------------------------------------------------------------------------
  Total CPU time                                                  0.4491
--------------------------------------------------------------------------------


  Dump file written as halospinel.grs


  Job Finished at 12:41.38 28th July       2022                               

