********************************************************************************
*                       GENERAL UTILITY LATTICE PROGRAM                        *
*                                 Julian Gale                                  *
*                       Curtin Institute for Computation                       *
*                    School of Molecular and Life Sciences                     *
*                    Curtin University, Western Australia                      *
********************************************************************************
* Version = 5.2.0 * Last modified =   1st June 2020                            *
********************************************************************************
*  optimise     - perform optimisation run                                     *
*  conp         - constant pressure calculation                                *
*  compare      - compare initial and final structures                         *
********************************************************************************

  Job Started  at 12:43.19 28th July       2022                               

  Number of CPUs =     1


  Total number of configurations input =      1

********************************************************************************
*  Input for Configuration =   1                                               *
********************************************************************************

  Formula = Li6Sc2Cl12                                                  

  Number of irreducible atoms/shells =      20


  Total number atoms/shells =      20

  Dimensionality = 3               :  Bulk   



  Cartesian lattice vectors (Angstroms) :

        6.398000    0.000000    0.000000
        0.000000   11.040000    0.000000
       -2.174317    0.000000    6.009761

  Cell parameters (Angstroms/Degrees):

  a =       6.3980    alpha =  90.0000
  b =      11.0400    beta  = 109.8900
  c =       6.3910    gamma =  90.0000

  Initial cell volume =         424.492978 Angs**3

  Temperature of configuration =   0.00     K 

  Pressure of configuration =         0.000 GPa 

  Fractional coordinates of asymmetric unit :

--------------------------------------------------------------------------------
   No.  Atomic       x           y          z         Charge      Occupancy
        Label      (Frac)      (Frac)     (Frac)        (e)         (Frac)  
--------------------------------------------------------------------------------
      1 Li    c    0.500000    0.834700    0.000000     1.00000    1.000000    
      2 Li    c    0.500000 *  0.165300 *  0.000000 *   1.00000    1.000000    
      3 Li    c    0.000000 *  0.334700 *  0.000000 *   1.00000    1.000000    
      4 Li    c    0.000000 *  0.665300 *  0.000000 *   1.00000    1.000000    
      5 Li    c    0.500000 *  0.331000 *  0.500000 *   1.00000    1.000000    
      6 Li    c    0.000000 *  0.500000 *  0.500000 *   1.00000    1.000000    
      7 Sc    c    0.000000 *  0.000000 *  0.000000 *   3.00000    1.000000    
      8 Sc    c    0.500000 *  0.500000 *  0.000000 *   3.00000    1.000000    
      9 Cl    c    0.757900 *  0.000000 *  0.231300 *  -1.00000    1.000000    
     10 Cl    c    0.242100 *  0.000000 *  0.768700 *  -1.00000    1.000000    
     11 Cl    c    0.257900 *  0.500000 *  0.231300 *  -1.00000    1.000000    
     12 Cl    c    0.742100 *  0.500000 *  0.768700 *  -1.00000    1.000000    
     13 Cl    c    0.238700 *  0.839100 *  0.237100 *  -1.00000    1.000000    
     14 Cl    c    0.761300 *  0.839100 *  0.762900 *  -1.00000    1.000000    
     15 Cl    c    0.761300 *  0.160900 *  0.762900 *  -1.00000    1.000000    
     16 Cl    c    0.238700 *  0.160900 *  0.237100 *  -1.00000    1.000000    
     17 Cl    c    0.738700 *  0.339100 *  0.237100 *  -1.00000    1.000000    
     18 Cl    c    0.261300 *  0.339100 *  0.762900 *  -1.00000    1.000000    
     19 Cl    c    0.261300 *  0.660900 *  0.762900 *  -1.00000    1.000000    
     20 Cl    c    0.738700 *  0.660900 *  0.237100 *  -1.00000    1.000000    
--------------------------------------------------------------------------------



********************************************************************************
*  General input information                                                   *
********************************************************************************

  Species output for all configurations : 

--------------------------------------------------------------------------------
  Species    Type    Atomic    Atomic    Charge       Radii (Angs)     Library
                     Number     Mass       (e)     Cova   Ionic  VDW   Symbol
--------------------------------------------------------------------------------
    Li       Core        3       6.94   1.000000   0.680  0.000  1.800          
    Sc       Core       21      44.96   3.000000   1.440  0.000  2.150          
    Cl       Core       17      35.45  -1.000000   0.990  0.000  1.650          
--------------------------------------------------------------------------------


  Lattice summation method               =    Ewald          (3-D)
                                         =    Parry          (2-D)
                                         =    Saunders et al (1-D)
  Accuracy factor for lattice sums       =   12.000


  Analytic derivatives to be used

  Time limit = Infinity

  Maximum range for interatomic potentials =    100000.000000 Angstroms

  General interatomic potentials :

--------------------------------------------------------------------------------
Atom  Types   Potential      Parameter       Value         Units   Cutoffs(Ang)
  1     2                                                            Min /  Max 
--------------------------------------------------------------------------------
Li   c Li   c Buckingham    Buckingham A     360.53000    eV        0.000 12.000
                            Buckingham rho  0.16100000    Ang       
                            Buckingham C     0.0000000    eV*Ang^6  
--------------------------------------------------------------------------------
Li   c Cl   c Buckingham    Buckingham A     220.00000    eV        0.000 12.000
                            Buckingham rho  0.34000000    Ang       
                            Buckingham C     0.0000000    eV*Ang^6  
--------------------------------------------------------------------------------
Cl   c Sc   c Buckingham    Buckingham A     26156.480    eV        0.000 12.000
                            Buckingham rho  0.24990000    Ang       
                            Buckingham C     0.0000000    eV*Ang^6  
--------------------------------------------------------------------------------
Cl   c Cl   c Buckingham    Buckingham A     1227.2000    eV        0.000 12.000
                            Buckingham rho  0.32100000    Ang       
                            Buckingham C     14.530000    eV*Ang^6  
--------------------------------------------------------------------------------

********************************************************************************
*  Output for configuration   1                                                *
********************************************************************************


  Components of energy : 

--------------------------------------------------------------------------------
  Interatomic potentials     =          19.10940749 eV    
  Monopole - monopole (real) =         -67.22352859 eV    
  Monopole - monopole (recip)=         -85.57811440 eV    
  Monopole - monopole (total)=        -152.80164299 eV    
--------------------------------------------------------------------------------
  Total lattice energy       =        -133.69223550 eV    
--------------------------------------------------------------------------------
  Total lattice energy       =          -12899.2571 kJ/(mole unit cells)
--------------------------------------------------------------------------------


  Number of variables =       63

  Maximum number of calculations  =          1000
  Maximum Hessian update interval =            10
  Maximum step size               =   1.000000000
  Maximum parameter tolerance     =   0.000010000
  Maximum function  tolerance     =   0.000010000
  Maximum gradient  tolerance     =   0.001000000
  Maximum gradient  component     =   0.010000000

  Symmetry not applied to optimisation

  Cell parameters to be optimised using strains

  Newton-Raphson optimiser to be used

  BFGS hessian update to be used

  Lower half triangular hessian to be used

  Start of bulk optimisation :

  Cycle:      0 Energy:      -133.692235  Gnorm:      1.518634  CPU:    0.017
  ** Hessian calculated **
  Cycle:      1 Energy:      -136.210788  Gnorm:      1.240647  CPU:    0.028
  ** Hessian calculated **
  Cycle:      2 Energy:      -137.953210  Gnorm:      0.771001  CPU:    0.044
  ** Hessian calculated **
  Cycle:      3 Energy:      -138.318792  Gnorm:      0.350652  CPU:    0.059
  ** Hessian calculated **
  Cycle:      4 Energy:      -138.687785  Gnorm:      0.303033  CPU:    0.069
  Cycle:      5 Energy:      -138.949542  Gnorm:      0.280078  CPU:    0.077
  Cycle:      6 Energy:      -139.499162  Gnorm:      0.264966  CPU:    0.084
  Cycle:      7 Energy:      -139.747953  Gnorm:      0.249877  CPU:    0.090
  Cycle:      8 Energy:      -140.098803  Gnorm:      0.257338  CPU:    0.099
  Cycle:      9 Energy:      -140.326513  Gnorm:      0.263631  CPU:    0.105
  Cycle:     10 Energy:      -140.490191  Gnorm:      0.167218  CPU:    0.111
  Cycle:     11 Energy:      -140.672145  Gnorm:      0.235937  CPU:    0.119
  Cycle:     12 Energy:      -140.790579  Gnorm:      0.147999  CPU:    0.125
  Cycle:     13 Energy:      -140.834679  Gnorm:      0.068036  CPU:    0.132
  ** Hessian calculated **
  Cycle:     14 Energy:      -140.903521  Gnorm:      0.024846  CPU:    0.144
  Cycle:     15 Energy:      -140.908898  Gnorm:      0.005049  CPU:    0.151
  Cycle:     16 Energy:      -140.909186  Gnorm:      0.001658  CPU:    0.156
  Cycle:     17 Energy:      -140.909218  Gnorm:      0.000664  CPU:    0.164
  Cycle:     18 Energy:      -140.909221  Gnorm:      0.000474  CPU:    0.171
  Cycle:     19 Energy:      -140.909222  Gnorm:      0.000399  CPU:    0.176
  ** Hessian calculated **


  **** Optimisation achieved ****


  Final energy =    -140.90922473 eV
  Final Gnorm  =       0.00000369

  Components of energy : 

--------------------------------------------------------------------------------
  Interatomic potentials     =          18.60549220 eV    
  Monopole - monopole (real) =         -79.45076915 eV    
  Monopole - monopole (recip)=         -80.06394778 eV    
  Monopole - monopole (total)=        -159.51471693 eV    
--------------------------------------------------------------------------------
  Total lattice energy       =        -140.90922473 eV    
--------------------------------------------------------------------------------
  Total lattice energy       =          -13595.5862 kJ/(mole unit cells)
--------------------------------------------------------------------------------

  Final fractional coordinates of atoms :

--------------------------------------------------------------------------------
   No.  Atomic        x           y          z          Radius
        Label       (Frac)      (Frac)     (Frac)       (Angs) 
--------------------------------------------------------------------------------
     1  Li    c     0.500000    0.834700    0.000000    0.000000
     2  Li    c     0.500000    0.104158    0.999999    0.000000
     3  Li    c     0.000000    0.495718    0.000000    0.000000
     4  Li    c     0.000000    0.724098    0.000000    0.000000
     5  Li    c     0.500000    0.399090    0.500000    0.000000
     6  Li    c     0.000000    0.413750    0.500000    0.000000
     7  Sc    c     1.000000    0.042102    1.000000    0.000000
     8  Sc    c     0.500000    0.413624    1.000000    0.000000
     9  Cl    c     0.719415    0.011520    0.177895    0.000000
    10  Cl    c     0.280584    0.011519    0.822104    0.000000
    11  Cl    c     0.263513    0.441247    0.237373    0.000000
    12  Cl    c     0.736488    0.441246    0.762627    0.000000
    13  Cl    c     0.226932    0.856194    0.110154    0.000000
    14  Cl    c     0.773068    0.856194    0.889847    0.000000
    15  Cl    c     0.722550    0.213149    0.952398    0.000000
    16  Cl    c     0.277450    0.213149    0.047601    0.000000
    17  Cl    c     0.727974    0.370065    0.339761    0.000000
    18  Cl    c     0.272026    0.370065    0.660239    0.000000
    19  Cl    c     0.215798    0.584830    0.912508    0.000000
    20  Cl    c     0.784203    0.584830    0.087493    0.000000
--------------------------------------------------------------------------------

  Final Cartesian lattice vectors (Angstroms) :

        6.644136   -0.000006    0.026254
        0.000011   11.655511    0.000002
       -2.129771   -0.000015    7.224259


  Final cell parameters and derivatives :

--------------------------------------------------------------------------------
       a            6.644188 Angstrom     dE/de1(xx)     0.000002 eV/strain
       b           11.655511 Angstrom     dE/de2(yy)     0.000028 eV/strain
       c            7.531656 Angstrom     dE/de3(zz)     0.000012 eV/strain
       alpha       90.000115 Degrees      dE/de4(yz)    -0.000001 eV/strain
       beta       106.199547 Degrees      dE/de5(xz)     0.000002 eV/strain
       gamma       90.000000 Degrees      dE/de6(xy)     0.000007 eV/strain
--------------------------------------------------------------------------------

  Primitive cell volume =           560.104105 Angs**3

  Density of cell =      1.651244 g/cm**3

  Non-primitive cell volume =           560.104105 Angs**3


  Final internal derivatives :

--------------------------------------------------------------------------------
   No.  Atomic          a             b             c           Radius
        Label          (eV)          (eV)          (eV)        (eV/Angs)
--------------------------------------------------------------------------------
      1 Li    c       0.000000      0.000000      0.000000      0.000000
      2 Li    c       0.000009      0.000004     -0.000005      0.000000
      3 Li    c       0.000005     -0.000012     -0.000007      0.000000
      4 Li    c       0.000004     -0.000028     -0.000007      0.000000
      5 Li    c      -0.000001      0.000002     -0.000001      0.000000
      6 Li    c       0.000005     -0.000004      0.000010      0.000000
      7 Sc    c       0.000018      0.000103     -0.000014      0.000000
      8 Sc    c      -0.000002      0.000004      0.000013      0.000000
      9 Cl    c      -0.000045     -0.000088      0.000041      0.000000
     10 Cl    c       0.000023     -0.000066     -0.000007      0.000000
     11 Cl    c      -0.000000      0.000007      0.000009      0.000000
     12 Cl    c       0.000005      0.000010     -0.000002      0.000000
     13 Cl    c       0.000065     -0.000041     -0.000023      0.000000
     14 Cl    c      -0.000070     -0.000087      0.000028      0.000000
     15 Cl    c      -0.000005      0.000049     -0.000014      0.000000
     16 Cl    c       0.000006      0.000023      0.000002      0.000000
     17 Cl    c      -0.000012     -0.000003     -0.000011      0.000000
     18 Cl    c      -0.000006     -0.000005     -0.000014      0.000000
     19 Cl    c      -0.000011      0.000006      0.000012      0.000000
     20 Cl    c       0.000008      0.000006     -0.000004      0.000000
--------------------------------------------------------------------------------
  Maximum abs         0.000070      0.000103      0.000041      0.000000
--------------------------------------------------------------------------------

  Comparison of initial and final structures : 

--------------------------------------------------------------------------------
  Parameter   Initial value   Final value   Difference    Units      Percent
--------------------------------------------------------------------------------
    Volume       424.492978    560.104105   135.611128    Angs**3     31.95
    a              6.398000      6.644188     0.246188    Angstroms    3.85
    b             11.040000     11.655511     0.615511    Angstroms    5.58
    c              6.391000      7.531656     1.140656    Angstroms   17.85
    alpha         90.000000     90.000115     0.000115    Degrees      0.00
    beta         109.890000    106.199547    -3.690453    Degrees     -3.36
    gamma         90.000000     90.000000     0.000000    Degrees      0.00
      1 x          0.500000      0.500000     0.000000    Fractional   0.00
      1 y          0.834700      0.834700     0.000000    Fractional   0.00
      1 z          0.000000      0.000000     0.000000    Fractional   0.00
      2 x          0.500000      0.500000     0.000000    Fractional   0.00
      2 y          0.165300      0.104158     0.061142    Fractional  36.99
      2 z          0.000000      0.999999     0.999999    Fractional   0.00
      3 x          0.000000      0.000000     0.000000    Fractional   0.00
      3 y          0.334700      0.495718     0.161018    Fractional  48.11
      3 z          0.000000      0.000000     0.000000    Fractional   0.00
      4 x          0.000000      0.000000     0.000000    Fractional   0.00
      4 y          0.665300      0.724098     0.058798    Fractional   8.84
      4 z          0.000000      0.000000     0.000000    Fractional   0.00
      5 x          0.500000      0.500000     0.000000    Fractional   0.00
      5 y          0.331000      0.399090     0.068090    Fractional  20.57
      5 z          0.500000      0.500000     0.000000    Fractional   0.00
      6 x          0.000000      0.000000     0.000000    Fractional   0.00
      6 y          0.500000      0.413750     0.086250    Fractional  17.25
      6 z          0.500000      0.500000     0.000000    Fractional   0.00
      7 x          0.000000      1.000000     1.000000    Fractional   0.00
      7 y          0.000000      0.042102     0.042102    Fractional   0.00
      7 z          0.000000      1.000000     1.000000    Fractional   0.00
      8 x          0.500000      0.500000     0.000000    Fractional   0.00
      8 y          0.500000      0.413624     0.086376    Fractional  17.28
      8 z          0.000000      1.000000     1.000000    Fractional   0.00
      9 x          0.757900      0.719415     0.038485    Fractional   5.08
      9 y          0.000000      0.011520     0.011520    Fractional   0.00
      9 z          0.231300      0.177895     0.053405    Fractional  23.09
     10 x          0.242100      0.280584     0.038484    Fractional  15.90
     10 y          0.000000      0.011519     0.011519    Fractional   0.00
     10 z          0.768700      0.822104     0.053404    Fractional   6.95
     11 x          0.257900      0.263513     0.005613    Fractional   2.18
     11 y          0.500000      0.441247     0.058753    Fractional  11.75
     11 z          0.231300      0.237373     0.006073    Fractional   2.63
     12 x          0.742100      0.736488     0.005612    Fractional   0.76
     12 y          0.500000      0.441246     0.058754    Fractional  11.75
     12 z          0.768700      0.762627     0.006073    Fractional   0.79
     13 x          0.238700      0.226932     0.011768    Fractional   4.93
     13 y          0.839100      0.856194     0.017094    Fractional   2.04
     13 z          0.237100      0.110154     0.126946    Fractional  53.54
     14 x          0.761300      0.773068     0.011768    Fractional   1.55
     14 y          0.839100      0.856194     0.017094    Fractional   2.04
     14 z          0.762900      0.889847     0.126947    Fractional  16.64
     15 x          0.761300      0.722550     0.038750    Fractional   5.09
     15 y          0.160900      0.213149     0.052249    Fractional  32.47
     15 z          0.762900      0.952398     0.189498    Fractional  24.84
     16 x          0.238700      0.277450     0.038750    Fractional  16.23
     16 y          0.160900      0.213149     0.052249    Fractional  32.47
     16 z          0.237100      0.047601     0.189499    Fractional  79.92
     17 x          0.738700      0.727974     0.010726    Fractional   1.45
     17 y          0.339100      0.370065     0.030965    Fractional   9.13
     17 z          0.237100      0.339761     0.102661    Fractional  43.30
     18 x          0.261300      0.272026     0.010726    Fractional   4.10
     18 y          0.339100      0.370065     0.030965    Fractional   9.13
     18 z          0.762900      0.660239     0.102661    Fractional  13.46
     19 x          0.261300      0.215798     0.045502    Fractional  17.41
     19 y          0.660900      0.584830     0.076070    Fractional  11.51
     19 z          0.762900      0.912508     0.149608    Fractional  19.61
     20 x          0.738700      0.784203     0.045503    Fractional   6.16
     20 y          0.660900      0.584830     0.076070    Fractional  11.51
     20 z          0.237100      0.087493     0.149607    Fractional  63.10
--------------------------------------------------------------------------------


  Time to end of optimisation =       0.1865 seconds


  Peak dynamic memory used =       1.92 MB 


  Timing analysis for GULP :

--------------------------------------------------------------------------------
  Task / Subroutine                                          Time (Seconds)
--------------------------------------------------------------------------------
  Calculation of reciprocal space energy and derivatives          0.0145
  Calculation of real space energy and derivatives                0.1629
  Calculation and manipulation of Hessian matrix                  0.0001
  Calculation of matrix inversion                                 0.0006
--------------------------------------------------------------------------------
  Total CPU time                                                  0.1865
--------------------------------------------------------------------------------


  Dump file written as halospinel.grs


  Job Finished at 12:43.19 28th July       2022                               

