LAMMPS (7 Aug 2019)
  using 1 OpenMP thread(s) per MPI task

# Input written to comply with LAMMPS 2017-08-11 00:00:00

# Atomic Configuration
units           metal
boundary        p p p
box             tilt large
atom_style      charge
read_data       monoclinic_7x7x7.lmp
  triclinic box = (0 0 0) to (71.9621 72.1932 72.0097) with tilt (-0.0740679 -0.228135 -0.206434)
  4 by 8 by 5 MPI processor grid
  reading atoms ...
  18522 atoms
  read_data CPU = 0.070708 secs
group           lithium type 1
5831 atoms in group lithium
group           scandium type 2
1715 atoms in group scandium
group           chloride type 3
10976 atoms in group chloride
variable        T1 equal 300
variable        dt equal 0.001

# Potential Setup
pair_style      buck/coul/long 12.0
pair_coeff      * * 0.0 1.0 0.0
pair_coeff      1 1    360.530000  0.161000   0.000000 # Li Li
pair_coeff      1 3    421.040000  0.344000   0.000000 # Li Cl
pair_coeff      3 3   1227.200000  0.321000  14.530000 # Cl Cl
pair_coeff      2 3  12131.350000  0.250700   0.000000 # Sc Cl

kspace_style    pppm 1e-05

# General Setup
timestep        ${dt}
timestep        0.001

# Thermodynamic Information Output
thermo_style    custom step temp epair emol etotal press lx ly lz fmax cpu cpuremain
thermo          1000

# Intial Atom Velocity
velocity        all create ${T1} 927914 dist gaussian rot yes
velocity        all create 300 927914 dist gaussian rot yes

# Stage 0: npt_equilibriation
restart         0
fix             int all npt aniso 1.0 1.0 $(1000*dt) temp ${T1} ${T1} $(100*dt)
fix             int all npt aniso 1.0 1.0 1 temp ${T1} ${T1} $(100*dt)
fix             int all npt aniso 1.0 1.0 1 temp 300 ${T1} $(100*dt)
fix             int all npt aniso 1.0 1.0 1 temp 300 300 $(100*dt)
fix             int all npt aniso 1.0 1.0 1 temp 300 300 0.10000000000000000555
run             50000
PPPM initialization ...
  using 12-bit tables for long-range coulomb (../kspace.cpp:323)
  G vector (1/distance) = 0.266277
  grid = 64 64 64
  stencil order = 5
  estimated absolute RMS force accuracy = 0.000166011
  estimated relative force accuracy = 1.15288e-05
  using double precision MKL FFT
  3d grid and FFT values/proc = 6900 1792
Neighbor list info ...
  update every 1 steps, delay 10 steps, check yes
  max neighbors/atom: 2000, page size: 100000
  master list distance cutoff = 14
  ghost atom cutoff = 14
  binsize = 7, bins = 11 11 11
  1 neighbor lists, perpetual/occasional/extra = 1 0 0
  (1) pair buck/coul/long, perpetual
      attributes: half, newton on
      pair build: half/bin/newton/tri
      stencil: half/bin/3d/newton/tri
      bin: standard
Per MPI rank memory allocation (min/avg/max) = 3.866 | 3.931 | 4.253 Mbytes
Step Temp E_pair E_mol TotEng Press Lx Ly Lz Fmax CPU CPULeft 
       0          300      -125257            0   -124538.79   -734.32006    71.962067    72.193154    72.009717     2.700585            0            0 
    1000    297.99876   -129208.49            0   -128495.08    -1129.185     76.83177    76.968748    78.290346    2.6229041    4.5323532     222.0853 
    2000    303.04023   -129337.83            0   -128612.35   -174.34026    76.425448    76.612106     78.56193     2.802271    8.9093521    213.82445 
    3000    301.23464   -129408.85            0   -128687.69   -1.8946798    76.306732    76.808298     78.46227    3.1983875    13.195388    206.72776 
    4000    299.32924   -129430.07            0   -128713.47   -121.29811    76.335913    77.166262    78.278513    3.2194132    17.509649    201.36098 
    5000    295.53604   -129460.76            0   -128753.24   -162.84668    76.228964    77.359263    78.111936    3.3367144    21.765048    195.88544 
    6000    301.92148   -129480.98            0   -128758.17   -56.481109     76.16461    77.339374    78.166865    2.7285999    25.763117    188.92953 
    7000    298.53754    -129507.2            0    -128792.5     -331.399    76.095912     77.56645    78.041487    2.6644352    29.848876    183.35739 
    8000    303.29484   -129505.14            0   -128779.05   -380.15827    76.222133    77.572864    77.999452    3.0077202    34.000755    178.50397 
    9000    300.22178    -129526.4            0   -128807.66   -286.87437    76.131296    77.622965    78.109673    3.5264368    38.180488    173.93334 
   10000    298.58167   -129532.72            0   -128817.91    81.908233    76.045826    77.757298    77.883573    2.9530062    42.393819    169.57528 
   11000    302.53008   -129536.71            0   -128812.44   -155.57785    76.093079    77.809694    77.984259    3.5201502    46.722214    165.65149 
   12000    298.52889   -129555.62            0   -128840.94    47.424113    75.995877    77.838332    77.978982    2.7586852    51.202831     162.1423 
   13000     300.0058   -129546.15            0   -128827.92     99.40657    75.943827     77.86315    77.932151    2.6459468    55.575212    158.17561 
   14000    297.61698   -129552.84            0   -128840.33   -270.39456    76.098973    77.664157    77.951351    2.9592753    59.937736    154.12561 
   15000    298.28286   -129568.76            0   -128854.66   -49.510458    75.933791    77.853031    77.861249    4.0121306     64.05563    149.46314 
   16000    301.29341   -129570.04            0   -128848.73   -240.70349      75.9881    77.863043    77.747392    2.8256065    68.162408    144.84512 
   17000    300.83289   -129572.83            0   -128852.62     137.2911    76.025915    77.872102    77.740548    2.7866467    72.103802     139.9662 
   18000    299.28245   -129583.44            0   -128866.95    323.12395    76.136387    77.640754    77.753737    2.9913522    76.025462    135.15638 
   19000    298.21067   -129582.32            0   -128868.39    5.3170038    75.994908    77.852265    77.738023    2.7104375    80.104512    130.69684 
   20000    299.76967   -129589.74            0   -128872.08    18.122144    75.936709    77.838039    77.772707    2.8431967    84.364757    126.54714 
   21000    300.39459   -129592.43            0   -128873.28   -326.51526    76.108508    77.821096    77.793001     3.070846    88.701104      122.492 
   22000     300.2034   -129591.36            0   -128872.67   -69.494826     76.13749    77.777755    77.631951    2.9173701    92.983411    118.34252 
   23000    300.48898   -129601.51            0   -128882.13     -168.077    75.900195    77.947048    77.645985    3.4448766    97.097927    113.98452 
   24000    299.50843   -129599.97            0   -128882.94    41.711163    75.843163    77.960271    77.748873    3.8229211     101.2792    109.71913 
   25000    298.69354   -129594.12            0   -128879.04    43.614765    75.868922    78.065523    77.595677    3.0683708    105.13178    105.13178 
   26000    298.84036   -129606.57            0   -128891.13    128.98178    75.929823    78.037159    77.551887    2.8481614     109.1322    100.73741 
   27000    299.89962   -129615.24            0   -128897.28   -4.3907846    75.844709     77.96491     77.63397    3.0655996    113.11019    96.353124 
   28000    299.30179   -129616.74            0    -128900.2    40.905325    75.784625    78.115259    77.573955    2.8010493    117.09274     92.00144 
   29000     301.3015   -129611.46            0   -128890.13   -127.34129    75.756768    78.269409    77.452405    2.7634508    121.11773     87.70594 
   30000    299.65425   -129615.03            0   -128897.65    96.363767    75.658833    78.297907    77.560372    2.8514398     125.4659    83.643933 
   31000    297.63168      -129615            0   -128902.46    296.48134     75.71372    78.187831    77.550136    3.7392025    129.71226    79.501064 
   32000    298.22731   -129609.11            0   -128895.15   -159.04435    75.665503    78.330313     77.57325    3.5791464    133.86636    75.299826 
   33000     302.5958    -129629.8            0   -128905.38    224.71172    75.658592    78.288793    77.555266    3.1289066    138.03566    71.109277 
   34000    301.90115   -129628.95            0   -128906.19    -484.1797    75.743796     78.36167    77.509564    3.2689643    142.10536     66.87311 
   35000    293.89744   -129626.03            0   -128922.43    18.546635    75.600578    78.468633    77.470365    3.1558519    146.14944    62.635475 
   36000    301.85722   -129627.96            0    -128905.3    248.47099    75.730504     78.31893    77.480407    3.1755025    150.19875    58.410626 
   37000     300.1652   -129636.88            0   -128918.28    413.90083    75.710287    78.384669    77.470891    4.1199708    154.21684    54.184297 
   38000     299.3123   -129630.51            0   -128913.95     233.5406    75.748456    78.446059    77.403599    2.8527488    158.07293    49.917767 
   39000    301.80424   -129633.98            0   -128911.45   -202.20755    75.657506    78.728228     77.33915    3.0617781    162.08677    45.716782 
   40000    300.45165   -129636.19            0    -128916.9    176.86356     75.67647    78.548072    77.349763    3.0536657    166.33678    41.584196 
   41000    297.66968    -129639.1            0   -128926.47    126.77334    75.584475    78.650679    77.361942    2.7848215    170.56631    37.441384 
   42000    299.40287   -129637.66            0   -128920.88    -43.54462    75.714442    78.671823    77.362279    3.0611902    174.60621    33.258327 
   43000    299.41687    -129643.2            0   -128926.38   -43.735874    75.683466    78.576866    77.298107    3.1717361    178.90475     29.12403 
   44000    301.73096   -129639.09            0   -128916.73    52.745234    75.745957    78.583748    77.269835    2.6726728    182.93279    24.945381 
   45000    299.54249   -129643.15            0   -128926.04   -15.845648    75.588731    78.861467    77.240529    2.9348519     187.1727    20.796967 
   46000    302.52421   -129641.17            0   -128916.92     170.1466    75.620233    78.649923    77.378852    3.6144744    191.01956    16.610396 
   47000    302.62046   -129643.31            0   -128918.82   -184.69365    75.671981    78.757762    77.336151    2.7291474     194.9074    12.440898 
   48000    299.97596   -129640.33            0   -128922.18   -26.664259    75.578097    78.761007    77.355599    3.5117287    198.73151    8.2804795 
   49000    300.47635   -129646.34            0   -128926.99   -71.021029    75.837478    78.628243    77.170869    2.9659567    202.75428    4.1378425 
   50000    300.33776   -129653.91            0    -128934.9    44.158715    75.770722    78.642132    77.324867    2.7813255    206.97147            0 
Loop time of 206.972 on 160 procs for 50000 steps with 18522 atoms

Performance: 20.872 ns/day, 1.150 hours/ns, 241.579 timesteps/s
98.8% CPU use with 160 MPI tasks x 1 OpenMP threads

MPI task timing breakdown:
Section |  min time  |  avg time  |  max time  |%varavg| %total
---------------------------------------------------------------
Pair    | 34.65      | 38.037     | 41.8       |  22.9 | 18.38
Kspace  | 115.96     | 120.16     | 123.82     |  14.0 | 58.05
Neigh   | 1.006      | 1.0936     | 1.2175     |   3.9 |  0.53
Comm    | 23.623     | 26.312     | 27.933     |  19.7 | 12.71
Output  | 0.0034332  | 0.0036314  | 0.028071   |   3.2 |  0.00
Modify  | 15.345     | 16.841     | 18.991     |  21.7 |  8.14
Other   |            | 4.529      |            |       |  2.19

Nlocal:    115.763 ave 131 max 105 min
Histogram: 6 15 15 42 31 25 17 6 2 1
Nghost:    3001.03 ave 3052 max 2934 min
Histogram: 2 5 13 18 17 30 29 24 16 6
Neighs:    26669.7 ave 31217 max 23526 min
Histogram: 7 10 20 40 40 21 15 6 0 1

Total # of neighbors = 4267157
Ave neighs/atom = 230.383
Neighbor list builds = 1138
Dangerous builds = 0

# Stage 1: nvt_equilibriation
unfix           int
restart         0
fix             int all nvt temp ${T1} ${T1} $(100*dt)
fix             int all nvt temp 300 ${T1} $(100*dt)
fix             int all nvt temp 300 300 $(100*dt)
fix             int all nvt temp 300 300 0.10000000000000000555
run             6000000
PPPM initialization ...
  using 12-bit tables for long-range coulomb (../kspace.cpp:323)
  G vector (1/distance) = 0.269185
  grid = 72 72 72
  stencil order = 5
  estimated absolute RMS force accuracy = 0.000120468
  estimated relative force accuracy = 8.36603e-06
  using double precision MKL FFT
  3d grid and FFT values/proc = 8800 2880
Per MPI rank memory allocation (min/avg/max) = 3.995 | 4.198 | 4.445 Mbytes
Step Temp E_pair E_mol TotEng Press Lx Ly Lz Fmax CPU CPULeft 
   50000    300.33776   -129653.96            0   -128934.94    42.939165    75.770722    78.642132    77.324867    2.7814934            0            0 
   51000      300.147   -129648.32            0   -128929.76   -349.08707    75.770722    78.642132    77.324867    2.8114699    4.1826122    25091.496 
   52000    299.12191   -129652.47            0   -128936.36   -125.27218    75.770722    78.642132    77.324867    3.0523323    8.2947261    24875.887 
   53000    302.16687   -129651.95            0   -128928.56    54.164252    75.770722    78.642132    77.324867    2.6838274    12.457331    24902.207 
   54000    300.19241   -129653.47            0    -128934.8   -178.46618    75.770722    78.642132    77.324867     2.928926    16.504114    24739.669 
   55000    300.32149   -129647.58            0    -128928.6    -220.4053    75.770722    78.642132    77.324867    3.1795416    20.494897    24573.383 
   56000    297.06519   -129652.44            0   -128941.26   -23.793895    75.770722    78.642132    77.324867     3.191922    24.553901    24529.348 
   57000    301.34637   -129649.48            0   -128928.05    75.545829    75.770722    78.642132    77.324867     2.790857    28.553287    24445.693 
   58000    302.04162   -129659.06            0   -128935.96   -27.816595    75.770722    78.642132    77.324867    2.9971468    32.615896    24429.307 
   59000    298.78806   -129660.05            0   -128944.74     78.87337    75.770722    78.642132    77.324867    2.6991737    36.713029     24438.64 
   60000    296.66254   -129658.83            0   -128948.61    170.35469    75.770722    78.642132    77.324867    3.0414548    40.886532    24491.033 
   61000    298.97722   -129656.48            0   -128940.72    38.161428    75.770722    78.642132    77.324867    3.7782939    44.962113    24479.827 
   62000     297.9956   -129664.68            0   -128951.27   -79.697094    75.770722    78.642132    77.324867    3.0883746     49.05437    24478.131 
   63000    299.17322   -129667.06            0   -128950.84   -26.197384    75.770722    78.642132    77.324867     3.179862    53.223313    24511.383 
   64000    301.84885   -129660.11            0   -128937.47   -22.411328    75.770722    78.642132    77.324867    2.6149285    57.249718    24478.344 
   65000    299.91329   -129666.09            0   -128948.09   -129.07865    75.770722    78.642132    77.324867    3.3497392    61.216153    24425.245 
   66000    301.06402    -129664.5            0   -128943.74    115.08446    75.770722    78.642132    77.324867    2.8205304    65.212694    24389.548 
   67000    298.96418   -129665.69            0   -128949.96   -147.65997    75.770722    78.642132    77.324867    3.3421198     69.27494    24380.704 
   68000     299.3206   -129673.33            0   -128956.75   -83.018646    75.770722    78.642132    77.324867    3.0021194    73.141518    24307.365 
   69000    301.88435   -129668.95            0   -128946.23   -83.578128    75.770722    78.642132    77.324867    3.0996547    77.307556    24335.605 
   70000    299.48969   -129663.95            0   -128946.97   -63.254233    75.770722    78.642132    77.324867    2.7247256    81.478113    24361.956 
   71000    301.65351   -129668.63            0   -128946.47   -30.237866    75.770722    78.642132    77.324867    3.2652956    85.645054    24384.371 
   72000    298.70037   -129669.78            0   -128954.68   -253.81416    75.770722    78.642132    77.324867    2.7188862    89.728917    24381.794 
   73000    303.37864   -129675.34            0   -128949.04   -88.682728    75.770722    78.642132    77.324867    3.1407362    93.911447    24404.727 
   74000     296.9921   -129662.85            0   -128951.84   -247.99339    75.770722    78.642132    77.324867    2.8315689    97.935396    24385.914 
   75000    298.45421   -129668.29            0   -128953.78   -369.60379    75.770722    78.642132    77.324867    3.4064964    101.85652    24343.707 
   76000    300.92567   -129669.96            0   -128949.54   -86.077425    75.770722    78.642132    77.324867    3.1862212    105.91102    24335.093 
   77000    298.64722   -129670.55            0   -128955.58   -146.54434    75.770722    78.642132    77.324867    3.0481326     109.7992    24290.024 
   78000     296.4704   -129663.83            0   -128954.07   -471.41212    75.770722    78.642132    77.324867    2.7408557    113.75095    24261.452 
   79000    301.65782   -129666.24            0   -128944.06   -185.42477    75.770722    78.642132    77.324867    2.6268603    117.86972    24268.969 
   80000    298.61071   -129679.34            0   -128964.45   -334.69072    75.770722    78.642132    77.324867    2.9622184    122.07293    24292.513 
   81000    304.68804   -129674.19            0   -128944.76    -178.6624    75.770722    78.642132    77.324867    3.6312102    126.26121    24311.392 
   82000    297.69341   -129675.59            0    -128962.9   -219.43375    75.770722    78.642132    77.324867    3.0181669    130.39728    24319.092 
   83000    297.26056   -129681.79            0   -128970.14   -551.35642    75.770722    78.642132    77.324867    3.5276261    134.47182     24314.95 
   84000     300.8929   -129678.16            0   -128957.81   -138.78076    75.770722    78.642132    77.324867    2.9434646    138.39805    24284.787 
   85000    297.86561   -129672.71            0   -128959.61   -96.671482    75.770722    78.642132    77.324867    3.1390246    142.32036    24255.455 
   86000    301.56444   -129672.35            0    -128950.4   -70.770834    75.770722    78.642132    77.324867    3.1451398    146.28442    24234.452 
   87000    300.85599   -129679.74            0   -128959.48   -323.60627    75.770722    78.642132    77.324867    2.7885679    150.20386    24207.179 
   88000    300.36022   -129677.51            0   -128958.44    63.232875    75.770722    78.642132    77.324867    3.3780185     154.2526    24201.421 
   89000    304.12215   -129681.22            0   -128953.14    35.543574    75.770722    78.642132    77.324867    3.3584926    158.36514    24205.503 
   90000    301.33329   -129679.29            0   -128957.89   -202.98327    75.770722    78.642132    77.324867    3.2389246    162.52661    24216.465 
   91000    301.08483   -129679.33            0   -128958.52    -132.8479    75.770722    78.642132    77.324867    2.9987638    166.72673    24232.307 
   92000    303.45327   -129680.39            0   -128953.92    12.853821    75.770722    78.642132    77.324867    2.8150727    170.79221    24228.094 
   93000    301.00048   -129690.54            0   -128969.94   -477.20588    75.770722    78.642132    77.324867    2.9578093    174.80766    24216.959 
   94000    298.80404   -129687.49            0   -128972.15   -326.15493    75.770722    78.642132    77.324867    2.8871287    178.85592    24210.588 
   95000    301.13194   -129683.68            0   -128962.76   -480.51222    75.770722    78.642132    77.324867    3.0584237    182.89194    24202.701 
   96000    298.87963    -129677.2            0   -128961.67   -345.71328    75.770722    78.642132    77.324867    3.0510958    186.80967    24179.669 
   97000    302.42256   -129675.06            0   -128951.05   -286.04973    75.770722    78.642132    77.324867    2.8049547    190.85334    24173.403 
   98000    299.22444   -129685.58            0   -128969.23   -135.10063    75.770722    78.642132    77.324867    2.8186059    194.91848    24169.892 
   99000    300.91712   -129679.02            0   -128958.62   -565.36651    75.770722    78.642132    77.324867    2.8158153    199.13629      24184.9 
  100000     298.8705   -129679.99            0   -128964.49   -327.71942    75.770722    78.642132    77.324867    3.1876439    203.33183    24196.488 
  101000    299.22318   -129690.11            0   -128973.76   -172.75959    75.770722    78.642132    77.324867    2.8466843    207.42025    24194.963 
  102000    298.93838   -129681.01            0   -128965.35   -327.50904    75.770722    78.642132    77.324867    2.9769393    211.52594    24195.313 
  103000    299.94199   -129677.69            0   -128959.62   -477.44712    75.770722    78.642132    77.324867    3.0601581    215.57714    24189.382 
  104000    296.68372   -129679.47            0    -128969.2    -600.6617    75.770722    78.642132    77.324867    3.2772322     219.5159     24171.14 
  105000    296.67737   -129677.02            0   -128966.76   -437.93636    75.770722    78.642132    77.324867    3.1004056    223.52382    24160.893 
  106000    299.57698   -129684.45            0   -128967.26   -305.36627    75.770722    78.642132    77.324867    3.2546374    227.44702    24141.877 
  107000    298.92464    -129683.8            0   -128968.16   -390.50368    75.770722    78.642132    77.324867    3.0537091    231.36741    24123.097 
  108000    300.60081   -129683.66            0   -128964.02    -622.7223    75.770722    78.642132    77.324867     3.215057    235.48755    24125.294 
  109000    296.81599   -129678.86            0   -128968.27   -547.84831    75.770722    78.642132    77.324867    2.6818567    239.78143    24144.771 
  110000    302.52735   -129689.75            0   -128965.49   -432.41029    75.770722    78.642132    77.324867    2.7935908    243.94194    24150.252 
  111000    301.36305   -129689.48            0   -128968.01     -253.515    75.770722    78.642132    77.324867    2.8303988    247.94478    24140.066 
  112000    298.42261   -129683.19            0   -128968.76   -327.84541    75.770722    78.642132    77.324867     2.876115    252.05149    24140.028 
  113000    299.09289   -129692.91            0   -128976.87   -580.17233    75.770722    78.642132    77.324867    3.1644178    256.16292    24140.306 
  114000    299.05274   -129696.02            0   -128980.08    -236.6577    75.770722    78.642132    77.324867    3.1960763    260.14137    24128.112 
  115000    300.06823   -129688.85            0   -128970.47   -618.11766    75.770722    78.642132    77.324867    3.2166836    264.20422    24123.878 
  116000    300.43889   -129698.77            0   -128979.51   -307.42239    75.770722    78.642132    77.324867    2.7358828    268.03078    24098.404 
  117000    300.80654   -129683.88            0   -128963.74   -512.09355    75.770722    78.642132    77.324867    2.8557777    272.00143    24086.335 
  118000     300.5581      -129691            0   -128971.46   -448.33687    75.770722    78.642132    77.324867    2.9747627     276.0525    24081.521 
  119000    297.55232    -129688.6            0   -128976.25   -604.22022    75.770722    78.642132    77.324867    3.1538325    280.20768    24085.677 
  120000    300.39174   -129689.99            0   -128970.85   -581.12307    75.770722    78.642132    77.324867    2.9444756    284.33317    24087.081 
  121000     303.1544   -129688.17            0   -128962.41   -548.66771    75.770722    78.642132    77.324867    2.7599597    288.39134    24082.708 
  122000    300.88262   -129691.21            0   -128970.89   -424.32538    75.770722    78.642132    77.324867    2.9357224    292.46794     24079.86 
  123000    301.78547   -129698.94            0   -128976.45   -642.86329    75.770722    78.642132    77.324867    3.2472306    296.58318    24080.116 
  124000    297.91553   -129689.16            0   -128975.95   -631.46706    75.770722    78.642132    77.324867    2.9724022    300.50278    24064.587 
  125000    301.51389   -129697.69            0   -128975.86   -306.52049    75.770722    78.642132    77.324867    2.7876562    304.54316     24058.91 
  126000    303.41662   -129692.47            0   -128966.08   -183.04607    75.770722    78.642132    77.324867    3.0627575    308.59113    24053.866 
  127000    299.06724   -129691.02            0   -128975.04   -349.36311    75.770722    78.642132    77.324867      2.98429    312.54122     24041.32 
  128000    300.44506   -129691.98            0   -128972.71   -402.45581    75.770722    78.642132    77.324867     2.822025    316.57129    24035.066 
  129000    299.27071   -129700.83            0   -128984.37   -92.164268    75.770722    78.642132    77.324867    2.9205647    320.74667     24039.76 
  130000    302.85592    -129693.7            0   -128968.66   -597.63851    75.770722    78.642132    77.324867      2.91437    324.89474    24042.211 
  131000    298.72915   -129698.44            0   -128983.27      -397.75    75.770722    78.642132    77.324867    2.7639095    329.00313    24041.599 
  132000    299.83025   -129692.39            0   -128974.59    -297.4281    75.770722    78.642132    77.324867    3.2329403    333.16419    24044.703 
  133000    301.69643   -129689.64            0   -128967.37   -603.50302    75.770722    78.642132    77.324867     3.071142    337.23585    24041.259 
  134000    302.67276   -129706.53            0   -128981.93   -268.47751    75.770722    78.642132    77.324867    2.9739536     341.3065    24037.729 
  135000    300.27835   -129698.27            0   -128979.39   -252.13724    75.770722    78.642132    77.324867    3.1147569    345.22278    24023.444 
  136000    301.06701   -129694.62            0   -128973.86   -319.38534    75.770722    78.642132    77.324867    3.2098328    349.18927    24012.853 
  137000    300.68354    -129705.3            0   -128985.46   -482.08121    75.770722    78.642132    77.324867    2.6113716     353.1459    24001.744 
  138000    298.90227   -129701.42            0   -128985.84   -306.81477    75.770722    78.642132    77.324867    3.3213707    357.17757    23995.839 
  139000    302.92123   -129700.75            0   -128975.55    -424.4447    75.770722    78.642132    77.324867    3.1125233    361.41604     24003.71 
  140000    300.20577   -129707.79            0   -128989.09   -147.57445    75.770722    78.642132    77.324867    3.2066247    365.56848    24005.664 
  141000     298.8087   -129697.85            0   -128982.49   -368.00321    75.770722    78.642132    77.324867    2.9452166    369.59149    23999.078 
  142000    298.68554   -129702.76            0    -128987.7   -255.97207    75.770722    78.642132    77.324867    2.9736372    373.80522    24004.796 
  143000    302.94563   -129700.01            0   -128974.75    -372.2277    75.770722    78.642132    77.324867    2.9411324     377.8423     23999.08 
  144000    299.25514   -129704.69            0   -128988.27    -489.7156    75.770722    78.642132    77.324867    2.8174526    381.82132    23989.752 
  145000    300.79774   -129713.95            0   -128993.84   -248.23938    75.770722    78.642132    77.324867     3.374491    385.80114    23980.587 
  146000    302.26492   -129700.44            0   -128976.81   -233.88069    75.770722    78.642132    77.324867    3.0116074    389.73095    23968.454 
  147000    299.51998   -129709.49            0   -128992.43   -356.55979    75.770722    78.642132    77.324867     3.360025    393.87454    23969.499 
  148000    300.06536   -129698.36            0   -128979.99   -90.949032    75.770722    78.642132    77.324867    3.0379678    398.09722    23975.202 
  149000    298.99697   -129704.41            0    -128988.6    -217.8419    75.770722    78.642132    77.324867    2.7713403    402.31529     23980.43 
  150000    303.53638   -129697.34            0   -128970.66   -206.82575    75.770722    78.642132    77.324867    3.7429756    406.38811    23976.898 
  151000    299.63016    -129704.1            0   -128986.78    -232.7767    75.770722    78.642132    77.324867    3.6696669    410.50242     23975.78 
  152000    297.61278   -129706.66            0   -128994.16   -697.29829    75.770722    78.642132    77.324867    2.6796729    414.65879    23977.034 
  153000    298.30123   -129711.96            0   -128997.81   -356.85196    75.770722    78.642132    77.324867    2.7132314    418.62549    23967.325 
  154000    300.44891   -129705.56            0   -128986.27   -383.27864    75.770722    78.642132    77.324867    3.1301882    422.56177    23956.002 
  155000    298.90327   -129706.64            0   -128991.06   -47.118815    75.770722    78.642132    77.324867    2.8634913    426.48993    23944.363 
  156000    299.55339   -129703.22            0   -128986.08   -408.60999    75.770722    78.642132    77.324867    3.3655692    430.44751    23934.506 
  157000    296.97243   -129705.67            0   -128994.71   -619.90773    75.770722    78.642132    77.324867    3.1560158     434.5124    23930.669 
  158000    300.03318   -129703.07            0   -128984.78   -256.14251    75.770722    78.642132    77.324867    3.3187429    438.79851    23938.897 
  159000    298.68143   -129708.26            0   -128993.21   -265.65326    75.770722    78.642132    77.324867    3.0246819    442.92516    23938.276 
  160000    299.32623   -129706.06            0   -128989.47   -107.14573    75.770722    78.642132    77.324867    3.3250631    447.00882     23935.29 
  161000    300.81683   -129708.58            0   -128988.42   -424.73477    75.770722    78.642132    77.324867    2.9987807      451.126    23934.063 
  162000    300.18741   -129716.09            0   -128997.43   -265.98882    75.770722    78.642132    77.324867    2.7440653    455.18579    23929.767 
  163000    300.09673   -129709.02            0   -128990.58   -660.75863    75.770722    78.642132    77.324867    2.8505329    459.18394    23922.264 
  164000    298.18872   -129708.84            0   -128994.97   -322.70144    75.770722    78.642132    77.324867    3.0722424    463.18135    23914.785 
  165000    302.32244   -129708.36            0   -128984.59   -83.719175    75.770722    78.642132    77.324867    2.8566145     467.2186    23909.404 
  166000    300.59539    -129710.5            0   -128990.87   -260.48402    75.770722    78.642132    77.324867    2.9289846    471.18587    23900.497 
  167000    296.30179   -129707.23            0   -128997.88   -523.26466    75.770722    78.642132    77.324867    2.9829865    475.32924    23900.529 
  168000    302.22753    -129709.3            0   -128985.76    -385.4129    75.770722    78.642132    77.324867    3.2600519     479.5518    23904.438 
  169000    299.17945   -129714.67            0   -128998.43   -490.70846    75.770722    78.642132    77.324867    2.5802061    483.85335    23912.114 
  170000    301.28759   -129702.67            0   -128981.38   -413.62878    75.770722    78.642132    77.324867     3.091773    487.89737    23906.971 
  171000    302.47269   -129713.89            0   -128989.76    -317.7946    75.770722    78.642132    77.324867    3.5959814     491.9663    23903.057 
  172000    298.04697   -129708.75            0   -128995.21   -466.86525    75.770722    78.642132    77.324867    3.2059208    496.07948    23901.272 
  173000    300.62398   -129707.58            0   -128987.88   -242.54024    75.770722    78.642132    77.324867    3.2910767    500.02613    23891.492 
  174000     300.4678   -129725.21            0   -129005.88   -360.07643    75.770722    78.642132    77.324867    3.2153542    503.99925    23883.061 
  175000    300.68131   -129713.14            0    -128993.3    -370.4655    75.770722    78.642132    77.324867    3.1962255     507.9913    23875.591 
  176000     294.4924   -129710.75            0   -129005.72   -191.89297    75.770722    78.642132    77.324867    3.3326699    511.98015    23868.027 
  177000    299.83212    -129710.2            0    -128992.4    -513.6458    75.770722    78.642132    77.324867    2.8737288    516.10232    23866.685 
  178000    295.20423   -129720.66            0   -129013.93    -457.2121    75.770722    78.642132    77.324867    2.7450238    520.33527     23870.38 
  179000    301.23064   -129713.55            0    -128992.4   -342.03395    75.770722    78.642132    77.324867    2.9740516    524.53733    23872.548 
  180000    299.71742   -129719.15            0   -129001.62   -115.94739    75.770722    78.642132    77.324867    3.4661105    528.63307    23869.816 
  181000    299.97856   -129710.23            0   -128992.08    -385.7052    75.770722    78.642132    77.324867    2.9639013    532.75934    23868.432 
  182000     298.4881   -129713.94            0   -128999.35    -314.8166    75.770722    78.642132    77.324867    3.4078531    536.72441     23859.84 
  183000    302.60991   -129719.84            0   -128995.39   -293.56846    75.770722    78.642132    77.324867    2.8342634    540.65388    23849.747 
  184000    300.33395   -129713.05            0   -128994.04   -478.11882    75.770722    78.642132    77.324867    3.0600893    544.61555    23841.155 
  185000     298.3776   -129723.03            0   -129008.71   -275.57452    75.770722    78.642132    77.324867    3.8818047    548.61889    23834.443 
  186000    303.01885   -129719.12            0   -128993.68   -217.43713    75.770722    78.642132    77.324867    2.9595157    552.67093     23829.87 
  187000    300.70711   -129726.47            0   -129006.57   -17.889525    75.770722    78.642132    77.324867    3.1549368     556.7747    23827.519 
  188000    302.91988   -129720.83            0   -128995.63   -433.05856    75.770722    78.642132    77.324867    3.0361579    560.99634    23830.149 
  189000    299.66731   -129714.36            0   -128996.94   -151.01955    75.770722    78.642132    77.324867    2.8775603    565.19308    23831.631 
  190000    298.62218   -129714.69            0   -128999.78   -204.44679    75.770722    78.642132    77.324867    2.8875682     569.1812    23824.299 
  191000    299.59325   -129719.27            0   -129002.04   -201.54111    75.770722    78.642132    77.324867    3.4649058    573.35872    23824.885 
  192000    302.49499    -129717.7            0   -128993.51   -159.86548    75.770722    78.642132    77.324867    2.7639547    577.31154    23816.134 
  193000    300.57885   -129716.04            0   -128996.45    174.11461    75.770722    78.642132    77.324867    2.7547111    581.39511    23812.805 
  194000    302.79412   -129720.36            0   -128995.46    38.486981    75.770722    78.642132    77.324867     3.781571    585.33827    23803.756 
  195000    300.67608   -129713.48            0   -128993.65   -227.45243    75.770722    78.642132    77.324867    2.9615962    589.27225    23794.407 
  196000     299.2564   -129716.81            0   -129000.38   -192.42623    75.770722    78.642132    77.324867    2.8836842     593.3498    23790.889 
  197000    303.08067   -129716.52            0   -128990.93   -168.27687    75.770722    78.642132    77.324867    2.9742523    597.47519    23789.267 
  198000    301.78511   -129721.03            0   -128998.55   -121.98688    75.770722    78.642132    77.324867    2.8268936    601.62905    23788.738 
  199000    300.59081   -129721.59            0   -129001.96   -331.06595    75.770722    78.642132    77.324867    3.1238973    605.75135     23786.92 
  200000    298.27223   -129716.61            0   -129002.54   -485.17046    75.770722    78.642132    77.324867    2.9604199    609.81392    23782.743 
  201000    301.42167   -129722.28            0   -129000.66   -228.74288    75.770722    78.642132    77.324867    3.4307881    613.95149    23781.472 
  202000    299.69132   -129715.27            0    -128997.8   -361.66817    75.770722    78.642132    77.324867     3.576491    618.03301    23778.007 
  203000    298.91062   -129726.92            0   -129011.32   -139.73707    75.770722    78.642132    77.324867    2.8096344    622.04992    23772.065 
  204000    300.59338   -129719.62            0   -128999.99   -381.03249    75.770722    78.642132    77.324867    3.2040809    626.03057    23764.771 
  205000     299.8207   -129720.93            0   -129003.15   -629.80358    75.770722    78.642132    77.324867    2.8525878    629.95225    23755.296 
  206000    300.43958   -129727.27            0   -129008.01   -432.46278    75.770722    78.642132    77.324867    3.2355813    633.93171    23748.057 
  207000    301.27956   -129722.51            0   -129001.24   -388.19847    75.770722    78.642132    77.324867    2.8133502    638.01268    23744.637 
  208000    300.64176   -129722.85            0   -129003.11    -343.2491    75.770722    78.642132    77.324867    3.1920234    642.17841    23744.344 
  209000    297.07893   -129724.75            0   -129013.54   -550.60581    75.770722    78.642132    77.324867    3.1342108    646.50226    23749.809 
  210000     299.4631   -129719.54            0   -129002.61    -379.1494    75.770722    78.642132    77.324867    2.8333475    650.53331    23744.466 
  211000    299.39847   -129713.28            0   -128996.51   -257.92858    75.770722    78.642132    77.324867    3.1163872    654.68262    23743.428 
  212000     301.2849   -129723.89            0    -129002.6    -426.6021    75.770722    78.642132    77.324867    3.0370632    658.69231    23737.319 
  213000     299.0999   -129728.28            0   -129012.23   -507.82599    75.770722    78.642132    77.324867    2.6603197    662.67573    23730.296 
  214000    299.19114   -129729.63            0   -129013.36   -446.45883    75.770722    78.642132    77.324867    2.9572713    666.63302     23722.38 
  215000    301.87941   -129721.14            0   -128998.43   -212.55037    75.770722    78.642132    77.324867    3.2271238     670.4708    23710.285 
  216000    300.76897   -129709.94            0   -128989.89   -517.55269    75.770722    78.642132    77.324867    3.0544809    674.54313    23706.534 
  217000    297.42435   -129719.31            0   -129007.27   -331.78136    75.770722    78.642132    77.324867    3.2601939    678.57418    23701.337 
  218000     299.8027   -129720.76            0   -129003.03   -461.47988    75.770722    78.642132    77.324867    3.4371973    682.64908    23697.675 
  219000    301.17761   -129721.97            0   -129000.95   -141.56801    75.770722    78.642132    77.324867    3.8624262    686.69893    23693.145 
  220000    301.16734   -129727.07            0   -129006.06   -206.93589    75.770722    78.642132    77.324867    2.7435034    690.72957    23687.961 
  221000    301.27415   -129729.26            0      -129008    -410.4175    75.770722    78.642132    77.324867    2.5577563     694.8008    23684.175 
  222000    303.64418   -129723.08            0   -128996.15   -175.47821    75.770722    78.642132    77.324867    2.9490094    698.65313    23672.968 
  223000     301.1805   -129722.05            0   -129001.01    -317.6137    75.770722    78.642132    77.324867    2.9823846    702.59169     23664.75 
  224000    297.67321   -129724.18            0   -129011.54   -663.42063    75.770722    78.642132    77.324867    2.6152907    706.64189     23660.32 
  225000    297.55923   -129726.12            0   -129013.76   -336.46816    75.770722    78.642132    77.324867    2.8296859    710.60688    23653.058 
  226000     300.2765   -129724.78            0   -129005.91   -551.49518    75.770722    78.642132    77.324867    3.1770761      714.692    23649.808 
  227000    298.49604   -129721.62            0   -129007.01   -423.62837    75.770722    78.642132    77.324867    3.1641261    718.91719    23651.157 
  228000    297.42705    -129728.8            0   -129016.75   -254.26828    75.770722    78.642132    77.324867    3.3891174    723.00874    23648.072 
  229000    302.87314   -129729.76            0   -129004.67   -453.61496    75.770722    78.642132    77.324867    3.2334094    727.18398    23647.698 
  230000    300.71224   -129727.62            0    -129007.7   -445.79209    75.770722    78.642132    77.324867     3.158129     731.2584    23644.021 
  231000    298.59761   -129732.33            0   -129017.48   -295.17244    75.770722    78.642132    77.324867    2.7276889    735.31297    23639.703 
  232000    300.29995   -129732.06            0   -129013.14   -220.73238    75.770722    78.642132    77.324867    2.7100812    739.30887    23633.511 
  233000    301.40439   -129725.17            0    -129003.6   -325.10746    75.770722    78.642132    77.324867    3.3478209    743.37347    23629.527 
  234000    300.76606   -129728.38            0   -129008.34   -318.99747    75.770722    78.642132    77.324867    2.8306265    747.24991    23619.595 
  235000    299.30086   -129732.77            0   -129016.24   -258.58341    75.770722    78.642132    77.324867    2.6127765      751.266    23614.118 
  236000    299.87385   -129725.76            0   -129007.85   -146.01087    75.770722    78.642132    77.324867    3.2171281    755.25977    23607.959 
  237000     299.4123   -129730.49            0   -129013.69   -126.84713    75.770722    78.642132    77.324867    3.0403198    759.31658    23603.782 
  238000    298.04943   -129729.54            0   -129016.01   -673.91214    75.770722    78.642132    77.324867    2.8513047    763.51958    23604.127 
  239000    301.37136   -129719.56            0   -128998.07    -183.2083    75.770722    78.642132    77.324867    2.7506013    767.59198    23600.407 
  240000    298.71159   -129733.46            0   -129018.34   -134.61764    75.770722    78.642132    77.324867    3.3140286    771.60576    23594.892 
  241000    301.87477   -129727.11            0   -129004.41   -444.87492    75.770722    78.642132    77.324867    3.6385751    775.61671    23589.306 
  242000    304.01055   -129734.38            0   -129006.57   -246.23211    75.770722    78.642132    77.324867    3.3092423     779.6871    23585.535 
  243000    296.90644   -129725.37            0   -129014.57   -303.50663    75.770722    78.642132    77.324867    2.7851869    783.69293    23579.818 
  244000    295.90723   -129728.94            0   -129020.53   -583.17009    75.770722    78.642132    77.324867    2.9580895    787.58436    23570.695 
  245000    302.08036   -129727.24            0   -129004.05   -488.41787    75.770722    78.642132    77.324867    3.4973951    791.56769    23564.361 
  246000    298.58084    -129733.1            0   -129018.29   -406.98582    75.770722    78.642132    77.324867    2.8921714    795.59032    23559.216 
  247000      299.839   -129725.34            0   -129007.52   -516.77137    75.770722    78.642132    77.324867    2.8406228    799.73647    23557.719 
  248000    299.89504   -129731.61            0   -129013.66   -444.25393    75.770722    78.642132    77.324867    3.0206754    803.85433    23555.368 
  249000    302.82809   -129731.07            0   -129006.09   -390.12294    75.770722    78.642132    77.324867    2.8674302    807.97466     23553.07 
  250000    304.31177   -129734.24            0   -129005.71   -87.096061    75.770722    78.642132    77.324867    3.4384982    812.01036    23548.301 
  251000     297.9881   -129731.15            0   -129017.76   -172.57072    75.770722    78.642132    77.324867    3.0793931    816.26668    23549.903 
  252000    301.10896   -129725.41            0   -129004.54   -256.35912    75.770722    78.642132    77.324867    2.8483937     820.2442    23543.445 
  253000    300.42097   -129736.39            0   -129017.17   -560.67915    75.770722    78.642132    77.324867    3.2352801    824.15912    23535.224 
  254000    301.39546   -129732.65            0    -129011.1   -356.94429    75.770722    78.642132    77.324867    3.4385333    828.16767    23529.705 
  255000    300.90324   -129733.61            0   -129013.24   -626.74291    75.770722    78.642132    77.324867    2.6937714    831.98313    23518.743 
  256000    297.94932   -129741.54            0   -129028.24    -495.8175    75.770722    78.642132    77.324867    2.7556181    836.10097    23516.355 
  257000    298.84781   -129729.85            0    -129014.4   -408.92383    75.770722    78.642132    77.324867    3.3577646    840.35593    23517.787 
  258000    299.77313   -129735.71            0   -129018.04   -621.76553    75.770722    78.642132    77.324867    2.9657252    844.39148    23513.055 
  259000    300.93892   -129741.19            0   -129020.73    -293.7331    75.770722    78.642132    77.324867    3.2472496    848.49232    23510.139 
  260000    300.90094   -129727.97            0   -129007.61   -138.51235    75.770722    78.642132    77.324867     2.990631    852.65902    23509.027 
  261000    298.59882   -129732.97            0   -129018.12   -510.02209    75.770722    78.642132    77.324867    2.9773837    856.59784    23501.635 
  262000    300.57794   -129738.15            0   -129018.56   -352.52253    75.770722    78.642132    77.324867    3.3245956    860.53871     23494.33 
  263000     299.0155   -129732.34            0   -129016.49    -143.8235    75.770722    78.642132    77.324867    3.0576497    864.48234    23487.133 
  264000    299.95955   -129738.36            0   -129020.25   -733.98743    75.770722    78.642132    77.324867    2.9503566    868.45852    23480.846 
  265000    301.65001   -129732.58            0   -129010.42   -767.02887    75.770722    78.642132    77.324867    2.9015892    872.40628    23473.815 
  266000     302.6807    -129737.8            0   -129013.18   -435.88478    75.770722    78.642132    77.324867    2.9412556    876.55877    23472.296 
  267000    297.66801   -129738.44            0   -129025.81   -347.55319    75.770722    78.642132    77.324867    2.9303071    880.75179    23471.832 
  268000     299.7531   -129734.76            0   -129017.14   -486.74379    75.770722    78.642132    77.324867    3.2012195    884.97122    23472.035 
  269000    300.43442   -129734.21            0   -129014.96   -286.74808    75.770722    78.642132    77.324867     2.954401    889.02212    23467.748 
  270000    297.75364    -129735.6            0   -129022.77   -455.34239    75.770722    78.642132    77.324867    3.4012396    893.13494    23465.091 
  271000    297.23331   -129729.17            0   -129017.58    -571.7404    75.770722    78.642132    77.324867    3.0065571    897.15616    23460.025 
  272000     298.8499      -129741            0   -129025.55   -546.05781    75.770722    78.642132    77.324867    3.5540995    901.17008    23454.778 
  273000    301.37528   -129727.31            0   -129005.81   -171.00851    75.770722    78.642132    77.324867    3.1673672    905.10195    23447.417 
  274000    300.24793   -129741.38            0   -129022.58   -526.26157    75.770722    78.642132    77.324867    3.3022059    909.05695    23440.683 
  275000    303.48639   -129725.98            0   -128999.42   -650.44938    75.770722    78.642132    77.324867    3.1035506    913.09804    23436.183 
  276000    301.82429   -129743.77            0   -129021.19   -389.99492    75.770722    78.642132    77.324867    2.8342697    917.11327    23431.027 
  277000    301.11194   -129735.58            0   -129014.71   -472.25017    75.770722    78.642132    77.324867    2.7872624    921.23079    23428.482 
  278000    299.61887   -129734.83            0   -129017.53   -428.83942    75.770722    78.642132    77.324867    2.6149886    925.47184     23429.05 
  279000    301.56301   -129738.57            0   -129016.62     -233.414    75.770722    78.642132    77.324867    3.3769713    929.53804     23425.17 
  280000    299.70864   -129741.85            0   -129024.34   -270.15334    75.770722    78.642132    77.324867    2.9364022     933.6593     23422.67 
  281000     297.8774   -129741.89            0   -129028.76   -464.01531    75.770722    78.642132    77.324867    3.0825574    937.62953    23416.384 
  282000    299.41713   -129735.73            0   -129018.92   -358.47911    75.770722    78.642132    77.324867    2.9551268     941.6157    23410.514 
  283000     300.8784   -129738.17            0   -129017.86   -564.42981    75.770722    78.642132    77.324867    2.6633633    945.54931     23403.36 
  284000    300.96709   -129741.31            0   -129020.79   -535.13829    75.770722    78.642132    77.324867    3.1160175    949.44909    23395.399 
  285000    300.20096   -129733.28            0   -129014.59   -482.73398    75.770722    78.642132    77.324867      3.02473    953.37419    23388.095 
  286000    299.13073   -129741.56            0   -129025.44    -305.0406    75.770722    78.642132    77.324867    2.9969306     957.4445    23384.365 
  287000    305.02465   -129742.37            0   -129012.14   -343.07718    75.770722    78.642132    77.324867    3.1944249    961.71432    23385.484 
  288000    300.48039   -129739.08            0   -129019.72   -477.68456    75.770722    78.642132    77.324867    2.9868662    965.86974    23383.788 
  289000    301.14379    -129743.2            0   -129022.25   -607.92686    75.770722    78.642132    77.324867    2.8473725    969.89959    23379.044 
  290000    301.49741   -129737.55            0   -129015.76   -494.56069    75.770722    78.642132    77.324867    2.8411986    974.22398    23381.376 
  291000    297.00243   -129732.18            0   -129021.15   -268.29257    75.770722    78.642132    77.324867    2.6940511    978.19404    23375.184 
  292000    298.55536   -129738.24            0   -129023.49   -622.98813    75.770722    78.642132    77.324867    3.2602955    982.17193    23369.198 
  293000    303.97618   -129733.17            0   -129005.44   -215.11736    75.770722    78.642132    77.324867    3.2400883    986.25821    23365.796 
  294000    300.67146   -129739.55            0   -129019.74   -540.98175    75.770722    78.642132    77.324867    2.8482563    990.24598    23360.065 
  295000     301.8023   -129732.65            0   -129010.13   -576.57714    75.770722    78.642132    77.324867    3.1305117     994.2645     23355.07 
  296000    297.21126   -129735.38            0   -129023.84   -531.09532    75.770722    78.642132    77.324867    3.1479461    998.53878    23356.066 
  297000    300.49649   -129734.21            0   -129014.82    -171.9324    75.770722    78.642132    77.324867    2.9587037    1002.7358    23355.218 
  298000      298.708   -129740.04            0   -129024.93   -249.46629    75.770722    78.642132    77.324867    3.7482917    1006.8293    23351.945 
  299000    302.75225    -129742.4            0    -129017.6   -118.25657    75.770722    78.642132    77.324867    3.2288859    1010.9953    23350.336 
  300000     299.9869   -129742.61            0   -129024.43   -673.77762    75.770722    78.642132    77.324867    2.8258833    1015.0577    23346.327 
  301000    300.71789   -129732.96            0   -129013.03   -446.85052    75.770722    78.642132    77.324867    3.2556231    1019.1238      23342.4 
  302000    299.80289   -129740.15            0   -129022.41   -282.11072    75.770722    78.642132    77.324867    2.9267493    1023.1188    23336.851 
  303000    296.43585   -129744.63            0   -129034.96    -603.5694    75.770722    78.642132    77.324867    2.9437146    1027.0627    23330.154 
  304000    300.07364   -129740.24            0   -129021.86   -165.05705    75.770722    78.642132    77.324867     3.243848    1031.0246    23323.888 
  305000    301.24093   -129735.16            0   -129013.98   -478.58442    75.770722    78.642132    77.324867    2.6972017     1035.075    23319.631 
  306000    295.59401   -129740.13            0   -129032.47   -408.90555    75.770722    78.642132    77.324867    3.0166708    1039.2893    23319.054 
  307000     298.9021   -129735.62            0   -129020.04   -424.08003    75.770722    78.642132    77.324867    2.8865154    1043.4186    23316.549 
  308000     298.1821   -129742.85            0      -129029   -492.23392    75.770722    78.642132    77.324867    3.0907814    1047.5348     23313.74 
  309000    299.51956   -129743.76            0    -129026.7   -529.69611    75.770722    78.642132    77.324867    2.8971225    1051.6475    23310.842 
  310000    300.55367   -129739.22            0   -129019.69   -378.31714    75.770722    78.642132    77.324867    2.6488216    1055.7351    23307.383 
  311000    302.75569   -129743.55            0   -129018.75   -343.25921    75.770722    78.642132    77.324867    2.9449336    1059.7392    23302.081 
  312000    299.66081   -129738.09            0    -129020.7    -619.8603    75.770722    78.642132    77.324867    3.2950929    1063.8197    23298.464 
  313000    298.61883   -129743.21            0   -129028.31   -542.01401    75.770722    78.642132    77.324867    2.6694884    1067.8001    23292.657 
  314000    297.75209   -129743.46            0   -129030.63   -584.78711    75.770722    78.642132    77.324867    2.8896029    1071.7433    23286.059 
  315000    299.88676   -129737.97            0   -129020.04   -172.43097    75.770722    78.642132    77.324867    3.1628084    1075.8059    23282.064 
  316000    293.01619   -129741.12            0   -129039.63   -452.13281    75.770722    78.642132    77.324867    3.0520831    1079.9923    23280.737 
  317000    299.76864    -129742.5            0   -129024.84   -685.71444    75.770722    78.642132    77.324867    2.9721934    1084.1891     23279.61 
  318000    301.55158   -129738.29            0   -129016.37   -632.73425    75.770722    78.642132    77.324867     3.516001    1088.2288    23275.103 
  319000    299.07466   -129743.76            0   -129027.76   -477.84052    75.770722    78.642132    77.324867     2.685038    1092.3909    23273.205 
  320000    300.53354   -129743.59            0   -129024.11   -498.83129    75.770722    78.642132    77.324867    2.9102095    1096.3787    23267.593 
  321000     301.0901   -129740.41            0   -129019.59    -575.1314    75.770722    78.642132    77.324867    3.1437432    1100.4142        23263 
  322000    301.89758   -129742.94            0   -129020.19   -838.57614    75.770722    78.642132    77.324867    3.4641908    1104.2683    23254.591 
  323000    297.33757   -129742.19            0   -129030.35    -374.4627    75.770722    78.642132    77.324867    2.9197186    1108.2855    23249.637 
  324000    297.08524   -129747.37            0   -129036.14   -860.70956    75.770722    78.642132    77.324867    2.9868387    1112.2443     23243.47 
  325000    300.16874   -129742.56            0   -129023.95   -537.15524    75.770722    78.642132    77.324867    2.9294637     1116.366     23240.71 
  326000    300.18749   -129741.99            0   -129023.33   -518.04102    75.770722    78.642132    77.324867    2.5140102    1120.5148    23238.502 
  327000    296.56163   -129739.83            0   -129029.86   -571.23802    75.770722    78.642132    77.324867    2.9490052    1124.7786    23238.657 
  328000    298.22634    -129745.2            0   -129031.23   -582.57206    75.770722    78.642132    77.324867    2.8797047    1128.8528    23234.876 
  329000    296.81503   -129748.17            0   -129037.59   -732.75228    75.770722    78.642132    77.324867    2.9801867    1132.9992    23232.574 
  330000    301.32317   -129746.87            0    -129025.5   -604.73657    75.770722    78.642132    77.324867    2.7508823    1136.9246    23225.744 
  331000    299.30038   -129742.88            0   -129026.34   -238.79981    75.770722    78.642132    77.324867    3.7168642    1140.9941    23221.869 
  332000     300.0145   -129738.12            0   -129019.88   -757.48426    75.770722    78.642132    77.324867     2.782909    1144.9957    23216.615 
  333000    298.03925   -129744.66            0   -129031.15   -607.67824    75.770722    78.642132    77.324867    3.2653702    1148.9783    23210.986 
  334000    300.28179   -129738.12            0   -129019.23   -728.55772    75.770722    78.642132    77.324867    2.7340061    1152.9391    23204.928 
  335000    298.08763   -129754.49            0   -129040.86   -588.88631    75.770722    78.642132    77.324867    3.6599892    1157.0049    23200.992 
  336000    298.02964   -129736.54            0   -129023.05   -627.83241    75.770722    78.642132    77.324867     3.161303    1161.2169    23199.976 
  337000     301.4985   -129748.05            0   -129026.25   -475.38647    75.770722    78.642132    77.324867    2.9024987     1165.293    23196.234 
  338000    300.19813   -129743.94            0   -129025.26   -646.86055    75.770722    78.642132    77.324867    3.5283325    1169.2731    23190.583 
  339000    299.48034    -129744.5            0   -129027.54   -590.63559    75.770722    78.642132    77.324867    3.1579256    1173.4563    23188.958 
  340000    299.38991   -129739.14            0   -129022.39   -878.16643    75.770722    78.642132    77.324867    2.7318554    1177.3934     23182.47 
  341000    300.08003   -129747.51            0   -129029.11    -643.2345    75.770722    78.642132    77.324867    3.2763083    1181.3742    23176.856 
  342000     297.3356   -129747.32            0   -129035.49    -444.2651    75.770722    78.642132    77.324867    3.1940595    1185.2775    23169.739 
  343000    303.26737   -129745.23            0    -129019.2   -837.91961    75.770722    78.642132    77.324867    2.7708009    1189.1364     23161.78 
  344000     300.1534   -129744.53            0   -129025.96   -603.73565    75.770722    78.642132    77.324867    3.0307724    1193.0962    23155.806 
  345000    302.10179   -129744.75            0   -129021.51   -530.72762    75.770722    78.642132    77.324867    2.8486015    1197.3085     23154.73 
  346000    300.46057   -129741.55            0   -129022.24   -285.14033    75.770722    78.642132    77.324867    3.3526405    1201.4547    23152.356 
  347000    299.03707   -129746.61            0   -129030.71   -662.77655    75.770722    78.642132    77.324867    2.8735269    1205.6198    23150.336 
  348000    297.25023   -129738.73            0    -129027.1   -600.99442    75.770722    78.642132    77.324867    3.0419744    1209.7155    23146.972 
  349000    297.54606   -129747.91            0   -129035.58   -752.86827    75.770722    78.642132    77.324867    2.6327811    1213.9353     23145.97 
  350000    301.87301   -129749.53            0   -129026.84   -778.46851    75.770722    78.642132    77.324867    2.7624724    1217.9106    23140.302 
  351000    300.47048   -129747.37            0   -129028.04   -871.79459    75.770722    78.642132    77.324867    3.3784787    1221.8847    23134.621 
  352000    298.18018   -129741.68            0   -129027.83   -672.78018    75.770722    78.642132    77.324867    3.0690035     1225.841    23128.617 
  353000    299.58644   -129747.56            0   -129030.34   -752.43014    75.770722    78.642132    77.324867    3.0233339    1229.9099    23124.741 
  354000    300.60662   -129743.52            0   -129023.86   -634.23866    75.770722    78.642132    77.324867    3.5259867    1234.0055    23121.366 
  355000    299.90208   -129743.15            0   -129025.17   -747.61016    75.770722    78.642132    77.324867    3.1875968    1238.1542    23118.977 
  356000    299.61066   -129744.98            0   -129027.71   -737.60903    75.770722    78.642132    77.324867    2.5331089    1242.2287    23115.197 
  357000    301.54008    -129748.6            0   -129026.71    -662.8434    75.770722    78.642132    77.324867    2.8557889    1246.3375     23112.05 
  358000    297.26814   -129745.66            0   -129033.99   -769.92281    75.770722    78.642132    77.324867    2.9143572    1250.4631    23109.207 
  359000    303.41274   -129744.24            0   -129017.86   -665.45197    75.770722    78.642132    77.324867    3.1491362    1254.6111     23106.77 
  360000     299.7686   -129756.43            0   -129038.78   -546.82951    75.770722    78.642132    77.324867    2.8306467    1258.6158    23101.691 
  361000     300.2021   -129743.86            0   -129025.16    -880.9209    75.770722    78.642132    77.324867    2.7923116    1262.6472    23097.106 
  362000    299.51354   -129744.42            0   -129027.38   -745.05422    75.770722    78.642132    77.324867     2.912606    1266.5489     23090.16 
  363000    297.02581   -129749.39            0   -129038.31   -768.19905    75.770722    78.642132    77.324867     3.730758    1270.4509     23083.24 
  364000    299.95063   -129746.69            0    -129028.6   -773.51075    75.770722    78.642132    77.324867     2.678654    1274.5554    23080.007 
  365000    300.95556    -129748.8            0    -129028.3   -932.24194    75.770722    78.642132    77.324867    2.7655091    1278.6721    23076.988 
  366000    302.62034   -129750.97            0   -129026.49   -278.15455    75.770722    78.642132    77.324867    2.6946303    1282.7961    23074.093 
  367000    300.94541   -129752.81            0   -129032.34   -586.28058    75.770722    78.642132    77.324867    3.3656603    1286.9637    23071.971 
  368000    298.39821   -129747.28            0   -129032.91   -645.16229    75.770722    78.642132    77.324867    2.9895391    1291.0398    23068.202 
  369000    299.70501   -129744.75            0   -129027.25   -465.30683    75.770722    78.642132    77.324867    3.5053704    1295.1504    23065.045 
  370000     300.8027      -129741            0   -129020.87   -395.48406    75.770722    78.642132    77.324867    2.8826356    1299.0622    23058.354 
  371000    299.62272   -129741.71            0   -129024.41   -578.36713    75.770722    78.642132    77.324867    3.5157128    1303.0015    23052.166 
  372000    297.04053   -129747.02            0    -129035.9   -618.46363    75.770722    78.642132    77.324867    2.9498628    1306.9432    23046.036 
  373000    297.18577   -129741.83            0   -129030.36   -511.81191    75.770722    78.642132    77.324867    3.0539982     1310.908    23040.325 
  374000    302.46344   -129744.28            0   -129020.18   -552.38222    75.770722    78.642132    77.324867    3.0432468    1315.0122    23037.066 
  375000     300.2211    -129748.5            0   -129029.76   -553.93487    75.770722    78.642132    77.324867    3.1442067    1319.0675    23032.948 
  376000    298.02934   -129741.61            0   -129028.12   -658.74881    75.770722    78.642132    77.324867    3.0253416    1323.2645    23031.296 
  377000    303.11399   -129751.83            0   -129026.17   -794.28417    75.770722    78.642132    77.324867     2.988678    1327.2364    23025.725 
  378000    298.61069   -129756.29            0   -129041.41   -658.80974    75.770722    78.642132    77.324867     2.761263    1331.2803    23021.409 
  379000    297.49444   -129751.38            0   -129039.17   -515.11681    75.770722    78.642132    77.324867    3.2688795    1335.4286    23018.893 
  380000    299.69628   -129751.79            0   -129034.31    -472.1197    75.770722    78.642132    77.324867    2.7047452    1339.3951    23013.242 
  381000    299.10035   -129751.65            0    -129035.6   -649.05779    75.770722    78.642132    77.324867    2.8387239    1343.3886    23008.067 
  382000    297.72064   -129750.98            0   -129038.23   -627.01818    75.770722    78.642132    77.324867    3.6471134    1347.2485    23000.616 
  383000    298.75026   -129747.97            0   -129032.75   -568.79826    75.770722    78.642132    77.324867    2.9555874     1351.179    22994.388 
  384000    303.43359   -129736.93            0    -129010.5   -604.59554    75.770722    78.642132    77.324867    2.6836875     1355.173    22989.253 
  385000     299.1235   -129750.58            0   -129034.47   -819.69514    75.770722    78.642132    77.324867    3.2929012    1359.4072    22988.184 
  386000    298.01831   -129747.32            0   -129033.85   -840.74666    75.770722    78.642132    77.324867     3.212671    1363.6384    22987.048 
  387000    298.46471   -129747.46            0   -129032.93   -545.82899    75.770722    78.642132    77.324867    2.8524484     1367.804     22984.79 
  388000    298.73559   -129750.47            0   -129035.29   -726.86089    75.770722    78.642132    77.324867    2.8935804    1371.9364    22981.964 
  389000    301.01861   -129744.64            0   -129023.99   -616.43647    75.770722    78.642132    77.324867    3.0076287     1375.943    22977.031 
  390000    300.28513   -129751.38            0   -129032.49   -559.61831    75.770722    78.642132    77.324867    2.6800645    1379.8604    22970.617 
  391000    302.23478   -129755.79            0   -129032.23   -635.44764    75.770722    78.642132    77.324867    3.2306379    1383.8041    22964.655 
  392000    301.39083    -129749.9            0   -129028.36    -535.9108    75.770722    78.642132    77.324867    2.9872612    1387.8003    22959.573 
  393000    300.81339   -129756.96            0    -129036.8    -588.9476    75.770722    78.642132    77.324867    3.6653879     1391.735    22953.483 
  394000    299.95448   -129749.23            0   -129031.13   -682.56367    75.770722    78.642132    77.324867     3.049615    1395.7605      22948.9 
  395000    299.90789   -129755.47            0   -129037.48    -743.7359    75.770722    78.642132    77.324867    3.3295036    1399.9732    22947.388 
  396000    302.37817    -129757.6            0    -129033.7   -600.07854    75.770722    78.642132    77.324867     3.402344    1404.1373    22945.064 
  397000    297.85432   -129750.68            0   -129037.61   -765.47672    75.770722    78.642132    77.324867    3.4199654    1408.1595    22940.419 
  398000    298.90209   -129753.91            0   -129038.33   -881.41477    75.770722    78.642132    77.324867    2.7167169      1412.24    22936.725 
  399000    301.45729    -129745.7            0   -129024.01   -614.79229    75.770722    78.642132    77.324867    3.2444533    1416.2174    22931.359 
  400000    300.28343   -129749.97            0   -129031.08    -606.9008    75.770722    78.642132    77.324867    2.9088393    1420.1523    22925.316 
  401000    302.30811   -129752.89            0   -129029.15    -678.3747    75.770722    78.642132    77.324867    4.1060555    1424.1245    22919.884 
  402000    300.88925   -129747.07            0   -129026.73   -460.15766    75.770722    78.642132    77.324867    2.9972911    1428.1633     22915.53 
  403000    299.22966   -129750.49            0   -129034.12   -738.22345    75.770722    78.642132    77.324867    3.2311687    1432.1133    22909.756 
  404000    301.39935   -129750.63            0   -129029.07   -786.93666    75.770722    78.642132    77.324867    3.3880422    1436.1645    22905.607 
  405000     297.7642   -129750.79            0   -129037.94   -675.14395    75.770722    78.642132    77.324867    2.4841013    1440.2704    22902.329 
  406000    298.29148   -129747.44            0   -129033.32   -837.36062    75.770722    78.642132    77.324867     3.004689    1444.4912    22900.866 
  407000    302.05115   -129755.09            0   -129031.97   -645.54253    75.770722    78.642132    77.324867    3.0136614    1448.4112    22894.634 
  408000    298.76481   -129751.71            0   -129036.46   -473.92163    75.770722    78.642132    77.324867    2.8947441     1452.504    22891.138 
  409000    297.39033    -129751.8            0   -129039.84   -704.67532    75.770722    78.642132    77.324867    2.7475745    1456.4968    22886.069 
  410000    298.53813    -129743.7            0      -129029   -875.02324    75.770722    78.642132    77.324867    2.8229062    1460.4278    22880.036 
  411000    301.60807   -129752.71            0   -129030.65   -672.19761    75.770722    78.642132    77.324867    3.1058018    1464.4024    22874.695 
  412000    300.42981   -129745.67            0   -129026.43   -582.77563    75.770722    78.642132    77.324867    3.2801152    1468.3611    22869.116 
  413000     300.7591   -129753.09            0   -129033.06   -758.05677    75.770722    78.642132    77.324867    3.1887999    1472.2611    22862.633 
  414000    298.83348   -129752.74            0   -129037.33   -573.15869    75.770722    78.642132    77.324867    2.6457679    1476.4233    22860.224 
  415000    301.78883   -129741.23            0   -129018.74   -469.12709    75.770722    78.642132    77.324867    2.9096463    1480.6541    22858.866 
  416000    299.05817   -129744.52            0   -129028.56   -715.26128    75.770722    78.642132    77.324867    3.0307781    1484.8836     22857.47 
  417000    299.44319   -129753.39            0   -129036.51   -589.86463    75.770722    78.642132    77.324867    2.7087837    1488.8218     22851.59 
  418000    300.10244   -129746.99            0   -129028.53   -578.57313    75.770722    78.642132    77.324867    3.3179863    1492.9762    22849.027 
  419000    298.14136   -129749.65            0   -129035.89   -826.99423    75.770722    78.642132    77.324867     2.888558    1497.0694    22845.523 
  420000    300.40025   -129744.09            0   -129024.93   -745.19958    75.770722    78.642132    77.324867    2.7238027     1500.894    22837.927 
  421000    297.02524   -129743.06            0   -129031.98    -700.7972    75.770722    78.642132    77.324867    3.2800873    1504.7768    22831.237 
  422000    300.45892   -129750.16            0   -129030.85   -866.48165    75.770722    78.642132    77.324867    3.1606134    1508.7337    22825.681 
  423000    301.62785   -129744.55            0   -129022.45   -810.87432    75.770722    78.642132    77.324867    3.5176337    1512.5775    22818.429 
  424000    301.23869   -129746.55            0   -129025.38   -696.63378    75.770722    78.642132    77.324867    2.7887487     1516.799    22816.875 
  425000    301.37201      -129751            0   -129029.51    -614.6412    75.770722    78.642132    77.324867    2.9979771    1520.9219    22813.828 
  426000    297.35411   -129755.23            0   -129043.35   -966.90354    75.770722    78.642132    77.324867    2.8603025    1525.0867    22811.403 
  427000    301.25128   -129751.66            0   -129030.45    -956.1376    75.770722    78.642132    77.324867    2.7944178    1529.0481    22805.934 
  428000    302.94629   -129752.06            0    -129026.8   -502.44776    75.770722    78.642132    77.324867    3.1481289    1533.2706    22804.358 
  429000     301.2858   -129753.24            0   -129031.96   -654.96384    75.770722    78.642132    77.324867    2.9780091    1537.2994    22799.894 
  430000    300.79363   -129748.25            0   -129028.14   -627.70138    75.770722    78.642132    77.324867    2.7908286    1541.2103     22793.69 
  431000    300.61914   -129744.44            0   -129024.75   -870.16771    75.770722    78.642132    77.324867    3.1033157    1545.1338    22787.682 
  432000    299.54443   -129754.15            0   -129037.03   -647.48313    75.770722    78.642132    77.324867     2.919853    1549.0172    22781.095 
  433000    299.34624   -129747.84            0    -129031.2   -782.20567    75.770722    78.642132    77.324867    3.0611031    1552.9558    22775.333 
  434000    299.76266   -129756.91            0   -129039.27   -637.86749    75.770722    78.642132    77.324867    3.1764191    1557.0546    22771.923 
  435000    297.17429   -129747.14            0    -129035.7   -639.91434    75.770722    78.642132    77.324867    3.5324587    1561.0995    22767.724 
  436000    298.10478   -129749.06            0   -129035.39   -1042.8762    75.770722    78.642132    77.324867    3.2697388    1565.1565      22763.7 
  437000    296.30506   -129750.49            0   -129041.13   -674.12742    75.770722    78.642132    77.324867    2.9905684    1569.1698    22759.044 
  438000    304.69264    -129754.9            0   -129025.46   -688.19418    75.770722    78.642132    77.324867    3.0511025      1573.29    22755.937 
  439000    298.50082   -129745.01            0   -129030.39   -378.77838    75.770722    78.642132    77.324867    2.9462122    1577.3442    22751.872 
  440000    298.43124   -129741.46            0      -129027   -588.56728    75.770722    78.642132    77.324867    2.7561448    1581.2895    22746.242 
  441000    298.52902   -129751.76            0   -129037.07   -725.57713    75.770722    78.642132    77.324867    3.1907138    1585.2523     22740.87 
  442000    300.10332   -129756.72            0   -129038.26    -511.4302    75.770722    78.642132    77.324867    3.0080045    1589.1628    22734.758 
  443000    299.27098   -129759.42            0   -129042.95   -860.07347    75.770722    78.642132    77.324867    2.7890214    1593.1239    22729.378 
  444000    303.10555   -129753.47            0   -129027.83     -847.965    75.770722    78.642132    77.324867    3.4488622    1597.2013    22725.661 
  445000    298.66715   -129754.26            0   -129039.24   -789.41656    75.770722    78.642132    77.324867      3.04461    1601.3678    22723.206 
  446000    298.59799   -129755.06            0   -129040.21   -975.97499    75.770722    78.642132    77.324867    3.3131751    1605.5188    22720.523 
  447000    298.38883   -129749.89            0   -129035.54   -649.46211    75.770722    78.642132    77.324867     3.250594     1609.574    22716.482 
  448000    301.56466   -129759.64            0   -129037.68   -633.14946    75.770722    78.642132    77.324867    2.6036309    1613.7608    22714.291 
  449000    297.71272   -129749.03            0   -129036.29    -552.3373    75.770722    78.642132    77.324867    3.4305886    1617.7223    22708.928 
  450000    296.95819   -129753.43            0    -129042.5   -649.46487    75.770722    78.642132    77.324867    2.7536396     1621.762    22704.668 
  451000    299.94905   -129748.59            0   -129030.51    -686.9935    75.770722    78.642132    77.324867    2.9047385    1625.6325    22698.046 
  452000    298.91449   -129756.52            0   -129040.91   -594.04983    75.770722    78.642132    77.324867    3.4260495    1629.5477     22692.06 
  453000    302.27993   -129745.42            0   -129021.75   -801.24846    75.770722    78.642132    77.324867    3.3951061    1633.5316    22687.038 
  454000    300.93882   -129754.91            0   -129034.45   -410.32317    75.770722    78.642132    77.324867    3.5433994    1637.5984     22683.17 
  455000     301.9616   -129752.48            0   -129029.58   -332.94795    75.770722    78.642132    77.324867    2.9585251    1641.8065    22681.253 
  456000    300.96038   -129752.14            0   -129031.63   -632.81931    75.770722    78.642132    77.324867    3.8145018    1645.9654    22678.647 
  457000    300.64648   -129751.95            0   -129032.19   -1013.9776    75.770722    78.642132    77.324867    3.2043538    1650.0892     22675.55 
  458000    302.86077   -129752.67            0   -129027.61   -801.65901    75.770722    78.642132    77.324867    3.2413315    1654.1897    22672.129 
  459000    300.10334   -129754.16            0    -129035.7   -886.83261    75.770722    78.642132    77.324867     2.953485    1658.2087    22667.591 
  460000    298.51827   -129760.97            0   -129046.31   -874.92583    75.770722    78.642132    77.324867    3.0472813    1662.1295    22661.718 
  461000    301.54132   -129753.74            0   -129031.84   -671.77617    75.770722    78.642132    77.324867    2.7137379    1666.1073    22656.628 
  462000    298.32249   -129757.88            0   -129043.68   -776.10521    75.770722    78.642132    77.324867    3.1825187    1670.0925    22651.643 
  463000    302.79111   -129756.22            0   -129031.33   -742.39642    75.770722    78.642132    77.324867    2.7914884    1674.1228    22647.273 
  464000    299.66405   -129755.49            0   -129038.08   -784.26185    75.770722    78.642132    77.324867     2.803625    1678.2366    22644.033 
  465000    299.38977   -129752.32            0   -129035.58   -946.67245    75.770722    78.642132    77.324867    3.0204001     1682.397    22641.415 
  466000    299.74881    -129749.8            0    -129032.2   -654.99527    75.770722    78.642132    77.324867    3.0442227    1686.4957    22637.962 
  467000    299.70494   -129754.11            0    -129036.6   -792.87108    75.770722    78.642132    77.324867    3.5122601    1690.6316    22635.003 
  468000     298.2942   -129751.88            0   -129037.76   -956.69788    75.770722    78.642132    77.324867     2.918539    1694.7124    22631.303 
  469000    299.81746    -129754.4            0   -129036.63   -638.38081    75.770722    78.642132    77.324867    3.1564085    1698.6316    22625.449 
  470000    302.21193   -129765.02            0   -129041.52   -461.62041    75.770722    78.642132    77.324867    2.7185152    1702.6462    22620.871 
  471000    300.90717   -129766.88            0    -129046.5   -729.33227    75.770722    78.642132    77.324867    3.2418939    1706.6155    22615.696 
  472000    300.02954   -129753.81            0   -129035.54   -1158.2773    75.770722    78.642132    77.324867    2.6751592    1710.6089    22610.844 
  473000    300.39915   -129751.82            0   -129032.66   -442.51117    75.770722    78.642132    77.324867    3.1140202    1714.7452    22607.882 
  474000    298.08798   -129753.25            0   -129039.62   -669.21815    75.770722    78.642132    77.324867    2.8582052    1719.1393    22608.303 
  475000    296.54067   -129755.55            0   -129045.63   -938.36409    75.770722    78.642132    77.324867     3.275543    1723.2839     22605.43 
  476000    299.16124   -129754.25            0   -129038.05   -734.26953    75.770722    78.642132    77.324867    2.7062421    1727.3729    22601.823 
  477000    298.18558   -129761.99            0   -129048.12   -786.01469    75.770722    78.642132    77.324867    2.9410827    1731.6057     22600.09 
  478000    301.11428   -129755.83            0   -129034.95   -662.40165    75.770722    78.642132    77.324867    3.0321241    1735.6231    22595.542 
  479000    298.99564   -129761.91            0   -129046.11   -760.93124    75.770722    78.642132    77.324867     3.087648    1739.5281    22589.536 
  480000    301.18293   -129765.14            0    -129044.1    -768.8191    75.770722    78.642132    77.324867    2.8746969    1743.5955    22585.644 
  481000     299.1248   -129756.53            0   -129040.42   -887.27591    75.770722    78.642132    77.324867    2.7969212    1747.5589    22580.408 
  482000     298.8005   -129757.11            0   -129041.77   -756.45194    75.770722    78.642132    77.324867    3.5121346     1751.482    22574.657 
  483000    300.74309   -129766.04            0   -129046.06   -867.69642    75.770722    78.642132    77.324867    3.5462206    1755.4919    22570.031 
  484000     301.5872   -129749.25            0   -129027.24   -777.53172    75.770722    78.642132    77.324867    2.8279042    1759.7093    22568.069 
  485000    298.78138   -129763.55            0   -129048.26   -733.68441    75.770722    78.642132    77.324867    3.2376876    1763.8685    22565.352 
  486000    301.78764   -129763.21            0   -129040.72   -603.27501    75.770722    78.642132    77.324867    3.0411966    1767.8904    22560.876 
  487000    304.96183   -129761.67            0   -129031.58   -935.76892    75.770722    78.642132    77.324867     3.141535    1771.9273    22556.594 
  488000    300.67895   -129760.65            0   -129040.82   -429.34163    75.770722    78.642132    77.324867    3.3060623    1775.9326    22551.911 
  489000    297.97969    -129767.8            0   -129054.43   -711.31832    75.770722    78.642132    77.324867    2.4536751    1779.7994    22545.478 
  490000    299.70683   -129761.97            0   -129044.47   -901.47525    75.770722    78.642132    77.324867     2.868619     1783.682    22539.255 
[...]
15930000    302.57991   -129843.05            0   -129118.66   -1728.7102    75.770722    78.642132    77.324867    3.4192638    39657.857    481.67438 
15931000    298.27336   -129840.27            0    -129126.2   -1937.7064    75.770722    78.642132    77.324867    3.0775722    39661.928    477.66112 
15932000    299.01992    -129842.5            0   -129126.64   -1925.9615    75.770722    78.642132    77.324867    3.3592493     39665.93    473.64701 
15933000    298.43245   -129830.69            0   -129116.24   -1841.2912    75.770722    78.642132    77.324867    2.8399134    39669.781    469.63112 
15934000     297.9818   -129839.53            0   -129126.16   -2004.9804    75.770722    78.642132    77.324867    2.8851653    39673.739    465.61653 
15935000    302.49273   -129826.28            0   -129102.11   -1855.8539    75.770722    78.642132    77.324867    3.4589471    39677.642     461.6013 
15936000    303.25395   -129837.89            0   -129111.89   -2007.7319    75.770722    78.642132    77.324867    2.9299495    39681.635    457.58713 
15937000     304.1561   -129840.03            0   -129111.87   -1637.6812    75.770722    78.642132    77.324867    3.0429022    39685.758    453.57446 
15938000    301.16678   -129834.86            0   -129113.86    -2121.354    75.770722    78.642132    77.324867    3.0130668    39689.916    449.56216 
15939000    298.83693   -129841.77            0   -129126.35   -2107.7455    75.770722    78.642132    77.324867    2.5553692     39693.97    445.54866 
15940000    297.68968   -129839.32            0   -129126.64   -1994.6407    75.770722    78.642132    77.324867    3.1267242    39697.909    441.53388 
15941000    298.36839   -129831.15            0   -129116.84   -1758.8655    75.770722    78.642132    77.324867     3.138278    39701.885     437.5195 
15942000    302.56887   -129836.73            0   -129112.37   -1986.6848    75.770722    78.642132    77.324867    2.9133393     39705.87    433.50525 
15943000    299.22698   -129839.89            0   -129123.53   -1787.7822    75.770722    78.642132    77.324867    3.1325454    39709.804    429.49045 
15944000    301.26494   -129836.89            0   -129115.66   -1936.9025    75.770722    78.642132    77.324867    2.7119249    39713.692    425.47517 
15945000     296.5317    -129850.3            0    -129140.4   -1937.3024    75.770722    78.642132    77.324867    2.9557739    39717.601    421.46015 
15946000    300.54477   -129829.77            0   -129110.26   -2052.8554    75.770722    78.642132    77.324867    3.3070528    39721.612     417.4462 
15947000    300.70573    -129840.2            0   -129120.31   -2180.9191    75.770722    78.642132    77.324867    3.2228796    39725.713    413.43321 
15948000    299.16186   -129831.98            0   -129115.78   -1854.3043    75.770722    78.642132    77.324867    2.8443303    39729.866    409.42073 
15949000    299.99814   -129835.74            0   -129117.53   -1721.2804    75.770722    78.642132    77.324867    3.1779757     39733.86    405.40659 
15950000    298.18455   -129837.96            0    -129124.1   -1751.0376    75.770722    78.642132    77.324867    2.9931103    39737.734    401.39125 
15951000    300.01996   -129831.65            0   -129113.39   -1789.0613    75.770722    78.642132    77.324867    3.2231097    39741.858    397.37845 
15952000    298.55909   -129838.81            0   -129124.05   -1932.8127    75.770722    78.642132    77.324867    2.8033219    39745.919    393.36498 
15953000    301.09087    -129838.3            0   -129117.48   -1841.4598    75.770722    78.642132    77.324867    3.0640922    39749.761    389.34937 
15954000    300.96173   -129833.15            0   -129112.64   -1837.6848    75.770722    78.642132    77.324867    2.8444148    39753.701    385.33474 
15955000     299.4983   -129839.26            0   -129122.26   -1992.6858    75.770722    78.642132    77.324867    3.7036009    39757.568    381.31943 
15956000    298.01125   -129832.45            0   -129119.01   -1927.2859    75.770722    78.642132    77.324867    3.0325753    39761.569    377.30542 
15957000    300.78664   -129838.29            0    -129118.2    -1867.382    75.770722    78.642132    77.324867    3.1140875    39765.574    373.29145 
15958000    300.72926   -129841.37            0   -129121.42    -1944.273    75.770722    78.642132    77.324867    3.1389527    39769.727    369.27885 
15959000    302.10421   -129839.12            0   -129115.87   -1742.1311    75.770722    78.642132    77.324867    2.7392056    39773.733    365.26488 
15960000    299.21281    -129834.5            0   -129118.18   -1844.3516    75.770722    78.642132    77.324867    3.0648125    39777.565    361.24933 
15961000    299.93971    -129836.3            0   -129118.23   -1954.5568    75.770722    78.642132    77.324867    3.0600968    39781.663     357.2362 
15962000    296.89427   -129835.76            0   -129124.99   -1936.5565    75.770722    78.642132    77.324867    2.9187961    39785.747    353.22294 
15963000    298.52343   -129845.26            0   -129130.59   -1810.4094    75.770722    78.642132    77.324867      3.14076    39789.659    349.20814 
15964000    298.90812   -129839.85            0   -129124.26   -2123.8837    75.770722    78.642132    77.324867    3.0142224     39793.52    345.19293 
15965000     300.0969   -129831.58            0   -129113.14   -2020.9723    75.770722    78.642132    77.324867    3.0133768    39797.382    341.17776 
15966000    300.00947   -129833.77            0   -129115.54   -2075.8142    75.770722    78.642132    77.324867    2.7615944    39801.244    337.16262 
15967000    297.10817   -129833.86            0   -129122.57   -1937.6877    75.770722    78.642132    77.324867    2.8828047     39805.42    333.15013 
15968000    299.40316   -129831.54            0   -129114.76   -2039.2967    75.770722    78.642132    77.324867    3.1961724    39809.569    329.13739 
15969000    300.85626   -129839.49            0   -129119.23   -1744.2769    75.770722    78.642132    77.324867    2.9761542    39813.635    325.12395 
15970000    302.42659   -129836.64            0   -129112.62   -1878.6758    75.770722    78.642132    77.324867    2.9822089    39817.568    321.10942 
15971000    296.19717   -129836.42            0   -129127.31   -1889.6706    75.770722    78.642132    77.324867    3.0461672     39821.55     317.0953 
15972000    301.73439   -129832.28            0   -129109.92   -1884.7793    75.770722    78.642132    77.324867    3.0507995    39825.587    313.08162 
15973000    298.94778   -129842.44            0   -129126.75   -2015.3871    75.770722    78.642132    77.324867    2.7789885     39829.57    309.06751 
15974000    300.94158   -129832.38            0   -129111.91    -1768.858    75.770722    78.642132    77.324867    2.6607306    39833.463    305.05272 
15975000    300.00115   -129840.39            0   -129122.18   -1774.4511    75.770722    78.642132    77.324867    2.6941825    39837.362      301.038 
15976000    298.14935   -129832.29            0   -129118.51   -2007.4528    75.770722    78.642132    77.324867    3.1031389    39841.271    297.02338 
15977000     300.9577   -129831.62            0   -129111.12   -1918.6084    75.770722    78.642132    77.324867    2.9340594     39845.39    293.01033 
15978000    299.72046    -129841.4            0   -129123.87    -2095.759    75.770722    78.642132    77.324867    2.6802102    39849.604    288.99794 
15979000    301.21874   -129829.52            0   -129108.39   -1770.9959    75.770722    78.642132    77.324867    3.0946421    39853.599    284.98394 
15980000    298.35472   -129834.54            0   -129120.27   -1876.9275    75.770722    78.642132    77.324867     2.767246     39857.47    280.96907 
15981000    298.79028   -129833.63            0   -129118.32   -1977.1301    75.770722    78.642132    77.324867    2.5725333    39861.513    276.95543 
15982000    298.45292      -129840            0   -129125.49   -1939.4432    75.770722    78.642132    77.324867     3.460468    39865.516    272.94151 
15983000    302.40756   -129838.08            0   -129114.11   -2055.5069    75.770722    78.642132    77.324867    2.9050913    39869.393    268.92674 
15984000    298.69536   -129837.16            0   -129122.08   -2110.6812    75.770722    78.642132    77.324867     2.901082    39873.337    264.91245 
15985000    302.83329   -129832.98            0   -129107.99   -1826.9968    75.770722    78.642132    77.324867     3.375461    39877.225     260.8978 
15986000    298.73978   -129843.63            0   -129128.44   -2103.5008    75.770722    78.642132    77.324867    3.3198245    39881.094    256.88305 
15987000    296.79569   -129835.72            0   -129125.18   -1988.9916    75.770722    78.642132    77.324867    2.5768544    39885.095    252.86918 
15988000     302.7029   -129834.84            0   -129110.16   -1707.5369    75.770722    78.642132    77.324867    3.3152128    39889.293    248.85653 
15989000    300.07655   -129838.76            0   -129120.37   -1886.3776    75.770722    78.642132    77.324867    3.0315741    39893.449    244.84358 
15990000    296.68427   -129839.46            0   -129129.18   -2076.1477    75.770722    78.642132    77.324867    2.8672836    39897.392    240.82933 
15991000    299.01069   -129839.04            0    -129123.2   -1682.2983    75.770722    78.642132    77.324867    3.7816816    39901.447    236.81575 
15992000    298.71026   -129844.55            0   -129129.43   -1745.7102    75.770722    78.642132    77.324867    2.8010945    39905.434    232.80177 
15993000    301.87872   -129839.55            0   -129116.85   -1953.1915    75.770722    78.642132    77.324867    3.6348266    39909.334    228.78729 
15994000    298.49041   -129840.22            0   -129125.62   -1984.4222    75.770722    78.642132    77.324867    2.8549313    39913.174     224.7725 
15995000    300.75434   -129835.15            0   -129115.14   -2035.9075    75.770722    78.642132    77.324867    3.1795286    39917.018    220.75777 
15996000    296.69012   -129842.59            0   -129132.31   -1792.0306    75.770722    78.642132    77.324867    2.8097719     39920.98    216.74371 
15997000    300.35729   -129843.75            0   -129124.69    -2062.461    75.770722    78.642132    77.324867    2.6934085    39925.036    212.73016 
15998000    298.80475   -129837.77            0   -129122.42   -1791.7937    75.770722    78.642132    77.324867    3.3854408    39929.174    208.71703 
15999000     299.9576   -129837.96            0   -129119.85   -2213.2225    75.770722    78.642132    77.324867    2.7712395    39933.304    204.70384 
16000000    297.68009   -129837.07            0   -129124.41   -1982.4378    75.770722    78.642132    77.324867    2.8285199     39937.16    200.68925 
16001000    300.92292    -129844.3            0   -129123.88    -2105.368    75.770722    78.642132    77.324867    2.6292416    39941.217    196.67567 
16002000    304.97942   -129831.18            0   -129101.06   -1682.0762    75.770722    78.642132    77.324867     2.892328    39945.181    192.66164 
16003000     297.9656    -129847.2            0   -129133.86   -2058.3949    75.770722    78.642132    77.324867     3.101604    39949.094    188.64738 
16004000     299.2514    -129836.4            0   -129119.98   -2306.0223    75.770722    78.642132    77.324867    3.1834213    39953.035    184.63327 
16005000     296.9178   -129837.61            0   -129126.78   -1766.5257    75.770722    78.642132    77.324867     2.601069    39956.903    180.61885 
16006000    300.30361    -129828.5            0   -129109.57   -1970.5175    75.770722    78.642132    77.324867    2.8643474    39960.799    176.60458 
16007000    298.05912   -129839.91            0   -129126.34   -2019.9599    75.770722    78.642132    77.324867     2.772238    39964.795    172.59076 
16008000    299.40128    -129834.3            0   -129117.53      -1866.3    75.770722    78.642132    77.324867    2.6959547    39968.985    168.57776 
16009000    302.92039   -129841.39            0   -129116.19   -2098.0202    75.770722    78.642132    77.324867    2.6168329    39973.036    164.56416 
16010000    298.18995   -129834.63            0   -129120.76    -1845.901    75.770722    78.642132    77.324867    3.0347838    39976.943    160.54997 
16011000    298.54539   -129835.34            0   -129120.61   -2330.6102    75.770722    78.642132    77.324867    2.6822045    39981.052    156.53659 
16012000    301.81535   -129843.27            0   -129120.71   -1912.3224    75.770722    78.642132    77.324867    2.8821235    39984.981    152.52251 
16013000    301.20116   -129833.75            0   -129112.67   -1888.4935    75.770722    78.642132    77.324867    2.9366571    39988.873    148.50831 
16014000    299.30363   -129839.37            0   -129122.83   -2020.3644    75.770722    78.642132    77.324867    2.6762218    39992.733    144.49402 
16015000    299.87563   -129835.89            0   -129117.98   -2026.3216    75.770722    78.642132    77.324867    3.4644069    39996.542    140.47957 
16016000    299.35476   -129830.25            0   -129113.58   -1924.9025    75.770722    78.642132    77.324867    2.8697081    40000.423    136.46542 
16017000    296.84631   -129837.41            0   -129126.75   -1943.5441    75.770722    78.642132    77.324867    2.9000962    40004.489    132.45191 
16018000     300.0812   -129845.24            0   -129126.83   -2027.8953    75.770722    78.642132    77.324867    3.1309298    40008.634    128.43863 
16019000    296.48595   -129829.95            0   -129120.15   -1991.2805    75.770722    78.642132    77.324867    2.6541108    40012.802    124.42541 
16020000    300.25292   -129844.65            0   -129125.84   -1873.1498    75.770722    78.642132    77.324867    2.8882708    40016.633    120.41113 
16021000    302.57343   -129838.89            0   -129114.52   -1920.1444    75.770722    78.642132    77.324867    2.6547763    40020.722    116.39765 
16022000    300.87099      -129838            0   -129117.71   -1840.0906    75.770722    78.642132    77.324867    2.8286301    40024.675    112.38376 
16023000    301.45077   -129835.62            0   -129113.94   -1859.4938    75.770722    78.642132    77.324867    3.0365144      40028.6    108.36982 
16024000    299.97391   -129835.43            0   -129117.28   -2118.5968    75.770722    78.642132    77.324867    3.2814269    40032.512    104.35586 
16025000    300.69458   -129841.39            0   -129121.52   -1996.5892    75.770722    78.642132    77.324867    3.2949169    40036.385    100.34182 
16026000    300.27705   -129839.53            0   -129120.66   -1844.1919    75.770722    78.642132    77.324867    3.0720535    40040.252    96.327791 
16027000     300.1355   -129839.67            0   -129121.13     -1772.63    75.770722    78.642132    77.324867    2.6395942    40044.319    92.314257 
16028000    304.29196   -129833.08            0    -129104.6   -1916.4658    75.770722    78.642132    77.324867    3.2270592    40048.416    88.300778 
16029000    300.28638   -129837.86            0   -129118.97   -1801.3962    75.770722    78.642132    77.324867    2.7009818     40052.57    84.287401 
16030000    300.04218   -129843.76            0   -129125.45   -1957.3133    75.770722    78.642132    77.324867    2.6198697     40056.43    80.273407 
16031000    300.06393   -129835.05            0   -129116.69   -1780.7535    75.770722    78.642132    77.324867    2.7727809    40060.454    76.259756 
16032000    301.77594   -129837.28            0   -129114.82   -1868.3665    75.770722    78.642132    77.324867    2.8577371    40064.496    72.246135 
16033000    296.71004   -129836.17            0   -129125.84    -1727.421    75.770722    78.642132    77.324867    3.3328434    40068.324    68.232146 
16034000    301.51521   -129836.27            0   -129114.43   -2176.1945    75.770722    78.642132    77.324867    3.2139904    40072.213    64.218291 
16035000    298.02061   -129846.29            0   -129132.82   -2105.0712    75.770722    78.642132    77.324867    3.0253136    40076.098    60.204453 
16036000    299.76582    -129839.1            0   -129121.45   -1923.1794    75.770722    78.642132    77.324867    2.4425572     40080.02    56.190696 
16037000    299.18669   -129836.15            0   -129119.89   -2173.2476    75.770722    78.642132    77.324867    2.8422382    40084.097    52.177156 
16038000    301.32421   -129837.45            0   -129116.07   -1770.4352    75.770722    78.642132    77.324867    3.3617156    40088.152    48.163578 
16039000    297.40937   -129845.31            0    -129133.3    -1855.839    75.770722    78.642132    77.324867    2.7953539     40092.26    44.150051 
16040000    301.06662    -129843.9            0   -129123.14   -2191.8098    75.770722    78.642132    77.324867    2.9261677    40096.196    40.136332 
16041000    300.24875   -129836.85            0   -129118.05   -1925.8636    75.770722    78.642132    77.324867    3.2100217    40100.324    36.122803 
16042000    300.70934   -129842.39            0   -129122.49   -2115.1963    75.770722    78.642132    77.324867    2.7371655    40104.399    32.109207 
16043000    301.46566   -129835.23            0   -129113.52   -1958.1234    75.770722    78.642132    77.324867    3.0002834    40108.304     28.09548 
16044000    300.69215   -129838.44            0   -129118.57   -1923.8608    75.770722    78.642132    77.324867    2.6033696    40112.103    24.081711 
16045000    300.16157   -129846.59            0      -129128   -2034.6398    75.770722    78.642132    77.324867    3.0573978    40116.016    20.068042 
16046000    300.73636   -129839.11            0   -129119.13   -1720.3591    75.770722    78.642132    77.324867    3.5022018    40119.844    16.054359 
16047000    298.36361   -129844.43            0   -129130.14   -2251.0617    75.770722    78.642132    77.324867     3.432015    40123.961      12.0408 
16048000      300.843   -129840.15            0   -129119.92   -2063.1693    75.770722    78.642132    77.324867    2.9815099    40128.004    8.0272063 
16049000    299.73573   -129844.54            0   -129126.97   -2011.9742    75.770722    78.642132    77.324867    3.1022563    40132.254    4.0136267 
16050000    300.06264   -129836.59            0   -129118.23   -1951.2424    75.770722    78.642132    77.324867    2.9835438    40136.053            0 
Loop time of 40136.1 on 160 procs for 10000000 steps with 18522 atoms

Performance: 21.527 ns/day, 1.115 hours/ns, 249.153 timesteps/s
98.8% CPU use with 160 MPI tasks x 1 OpenMP threads

MPI task timing breakdown:
Section |  min time  |  avg time  |  max time  |%varavg| %total
---------------------------------------------------------------
Pair    | 6234       | 7433       | 8281.4     | 446.5 | 18.52
Kspace  | 23191      | 24180      | 25461      | 249.2 | 60.25
Neigh   | 181.81     | 207.63     | 232.34     |  59.6 |  0.52
Comm    | 6086.7     | 6617.4     | 6986.2     | 210.5 | 16.49
Output  | 327.68     | 327.69     | 327.71     |   0.0 |  0.82
Modify  | 995.63     | 1229.9     | 1527.9     | 354.2 |  3.06
Other   |            | 140        |            |       |  0.35

Nlocal:    115.763 ave 129 max 99 min
Histogram: 2 1 9 13 33 37 24 16 15 10
Nghost:    2989.03 ave 3053 max 2924 min
Histogram: 5 10 15 22 28 25 21 16 14 4
Neighs:    26687.9 ave 30486 max 21845 min
Histogram: 2 1 10 18 29 38 23 19 12 8

Total # of neighbors = 4270068
Ave neighs/atom = 230.54
Neighbor list builds = 219796
Dangerous builds = 0

# Final Commands
variable        final_energy equal etotal
print           "final_energy: ${'final_energy'}"
ERROR on proc 0: Substitution for illegal variable 'final_energy' (../input.cpp:553)
Last command: final_energy: ${'final_energy'
