LAMMPS (7 Aug 2019)
  using 1 OpenMP thread(s) per MPI task
# Input written to comply with LAMMPS 2017-08-11 00:00:00

# Atomic Configuration
units           metal
boundary        p p p
box tilt large
atom_style      charge
read_data       super.lmp
  triclinic box = (0 0 0) to (30.8409 30.9399 30.8613) with tilt (-0.0317434 -0.0977723 -0.0884718)
  4 by 5 by 4 MPI processor grid
  reading atoms ...
  1458 atoms
  read_data CPU = 0.0158889 secs
group           lithium type 1
459 atoms in group lithium
group           scandium type 2
135 atoms in group scandium
group           chloride type 3
864 atoms in group chloride
variable        T1 equal 300

# Potential Setup
pair_style  buck/coul/long 12.0
pair_coeff * * 0.0 1.0 0.0
pair_coeff 1 1     360.530000  0.161000   0.000000 # Li Li
pair_coeff 1 3     421.040000  0.344000   0.000000 # Li Cl
pair_coeff 3 3    1227.200000  0.321000  14.530000 # Cl Cl
pair_coeff 2 3   12131.350000  0.250700   0.000000 # Sc Cl

kspace_style pppm 1e-05

# General Setup
timestep        0.001

# Thermodynamic Information Output
thermo_style custom step temp epair emol etotal press lx ly lz fmax cpu cpuremain
thermo          1000

# Intial Atom Velocity
velocity all create ${T1} 80800 dist gaussian rot yes
velocity all create 300 80800 dist gaussian rot yes

# Stage 0: npt_equilibriation
restart         0
fix             int all npt aniso 1.0 1.0 0.1 temp ${T1} ${T1} 0.5
fix             int all npt aniso 1.0 1.0 0.1 temp 300 ${T1} 0.5
fix             int all npt aniso 1.0 1.0 0.1 temp 300 300 0.5
run             50000
PPPM initialization ...
  using 12-bit tables for long-range coulomb (../kspace.cpp:323)
  G vector (1/distance) = 0.271552
  grid = 30 30 30
  stencil order = 5
  estimated absolute RMS force accuracy = 0.000111037
  estimated relative force accuracy = 7.71111e-06
  using double precision MKL FFT
  3d grid and FFT values/proc = 2548 384
Neighbor list info ...
  update every 1 steps, delay 10 steps, check yes
  max neighbors/atom: 2000, page size: 100000
  master list distance cutoff = 14
  ghost atom cutoff = 14
  binsize = 7, bins = 5 5 5
  1 neighbor lists, perpetual/occasional/extra = 1 0 0
  (1) pair buck/coul/long, perpetual
      attributes: half, newton on
      pair build: half/bin/newton/tri
      stencil: half/bin/3d/newton/tri
      bin: standard
Per MPI rank memory allocation (min/avg/max) = 3.45 | 3.524 | 3.713 Mbytes
Step Temp E_pair E_mol TotEng Press Lx Ly Lz Fmax CPU CPULeft 
       0          300   -9859.8291            0   -9803.3294   -715.17441    30.840886    30.939923    30.861307    2.7005434            0            0 
    1000    534.35737   -10115.344            0   -10014.707    217.84084    33.365005    34.641678     33.73332    3.0927731     1.459419    71.511532 
    2000    387.04821   -10154.521            0   -10081.627   -236.86986    33.070344    34.466451    33.555385    2.4773615    2.9908519    71.780445 
    3000    309.84629   -10175.145            0   -10116.791    2064.6068    32.824692    34.394117     33.32874    2.3429311     4.526526    70.915589 
    4000     286.6673   -10182.376            0   -10128.387   -233.20835     32.83684    34.204421    33.387437    2.2594344    6.1168079    70.343291 
    5000    312.69228   -10179.827            0   -10120.937   -1415.8322    32.647452    34.300472    33.516972    2.5171859    7.6158378     68.54254 
    6000    301.56516   -10179.585            0   -10122.791    727.96689    32.644479    34.328671    33.403848    2.5858668     9.088963    66.652396 
    7000     290.3092   -10186.666            0   -10131.992    454.32573    32.722328    34.247114     33.31619    2.3912935    10.523863    64.646593 
    8000    292.94979   -10181.861            0   -10126.689     -899.782    32.798101    34.127982    33.360513    2.2102484    11.938034    62.674684 
    9000    303.17185   -10180.906            0   -10123.809   -100.03024    32.661513    34.264156    33.260899    2.7065278    13.366356    60.891181 
   10000    284.39624   -10186.249            0   -10132.688     607.2726    32.660787    34.183903    33.355286    2.5168518    14.831547    59.326192 
   11000    299.47655   -10187.444            0   -10131.043   -51.188322     32.73681      34.0245    33.465947    2.4488545    16.235857    57.563496 
   12000    316.20252   -10186.084            0   -10126.533   -887.25216    32.731925    34.255895    33.361476    2.8679803    17.706441    56.070402 
   13000    291.97127   -10187.752            0   -10132.765   -118.20304     32.63201    34.129776    33.334731    2.6766028    19.139153    54.472977 
   14000    294.46908    -10188.11            0   -10132.652    1439.8036    32.622967    34.063767    33.245639    2.8462709    20.566821    52.886113 
   15000    306.99405    -10186.09            0   -10128.273   -330.49546    32.554702    34.065114    33.478431    3.3314835    21.973394    51.271255 
   16000    301.64777   -10188.566            0   -10131.756    -1862.129    32.603216    34.177947    33.498828    2.4987649    23.484515    49.904596 
   17000    289.68412     -10189.8            0   -10135.243    362.13492    32.742464    34.205287    33.093236    2.3003779    24.978946    48.488544 
   18000      303.096   -10188.249            0   -10131.167     453.1268    32.710944    34.185178    33.337395    2.6449634    26.368103    46.876629 
   19000    299.59514   -10188.114            0   -10131.691   -995.57414    32.749284    34.102048    33.337768    2.5465321    27.729961    45.243622 
   20000    290.77845   -10190.942            0   -10136.179   -190.64696    32.551446    34.092255    33.459828    2.2828961    29.112241    43.668363 
   21000    300.30391   -10190.717            0    -10134.16    1201.2463    32.833979    33.928911    33.391703    2.7883644    30.532434    42.163839 
   22000    298.59595   -10189.349            0   -10133.114   -360.23346    32.674395    34.119938    33.491607    2.1888326    31.922087    40.628112 
   23000    296.00514   -10191.501            0   -10135.754   -918.51537    32.594211    34.185202    33.562297    2.3396198    33.326073    39.121913 
   24000    302.42207   -10193.003            0   -10136.047    441.58484     32.48983    34.163052    33.599021    2.4984604    34.803084    37.703342 
   25000     308.1041   -10192.289            0   -10134.263     430.5512    32.624692    33.976076    33.450489    2.6557785    36.194902    36.194903 
   26000    296.04843   -10191.306            0   -10135.551   -1507.4497    32.646017    34.241108    33.411059    2.7654115    37.659947    34.763029 
   27000    288.25211   -10190.897            0   -10136.609   -65.532304    32.408255    34.235429    33.502532    2.5230296    39.145003    33.345745 
   28000    300.60659   -10191.746            0   -10135.132    599.62186    32.621136    33.842992    33.484513    3.6026581    40.695165    31.974773 
   29000    300.23187   -10192.778            0   -10136.235   -94.918839    32.700915    33.883341    33.496649    2.7622535    42.225523    30.577104 
   30000    288.90906   -10192.047            0   -10137.636   -884.46801    32.586439    34.032521    33.631368     2.779818    43.734194     29.15613 
   31000    305.93312   -10193.289            0   -10135.672    415.54476    32.678781    33.812228     33.67367    2.4634297    45.247989    27.732639 
   32000    297.47965   -10191.994            0   -10135.969    756.27816    32.740711    33.797982    33.571552    2.0542381    46.738616    26.290472 
   33000    306.45859   -10195.278            0   -10137.562   -1078.4471    32.735812    33.881633    33.451599    2.3076929    48.112637    24.785298 
   34000     307.1917   -10195.194            0    -10137.34   -426.45888    32.864455    33.704338    33.679158    2.9804471    49.540778    23.313308 
   35000    303.77925   -10194.499            0   -10137.287    565.38073    32.674782    33.854642    33.597841    2.4299922    50.904983    21.816422 
   36000    298.38426   -10194.473            0   -10138.278    845.77502    32.706647    33.772259    33.496814    2.4386652    52.374409    20.367826 
   37000    296.65016   -10193.457            0   -10137.588   -1409.4618    32.926505     33.69167    33.421445    2.7619416     53.77497    18.893909 
   38000    291.57978   -10193.645            0   -10138.732   -197.09523    32.648806    33.878829      33.5716    2.4620338    55.228079    17.440446 
   39000    300.82397    -10197.08            0   -10140.425     631.7541    32.566402    33.762585    33.546582    2.3781692    56.754969    16.007812 
   40000    308.00194   -10194.744            0   -10136.738   -133.29877     32.66659    33.651472    33.668141    2.4727552    58.178551    14.544638 
   41000    302.80763   -10195.733            0   -10138.705   -1384.3574    32.843614    33.778332    33.542841    2.2521832     59.58093    13.078741 
   42000    309.63789   -10198.265            0    -10139.95    183.37965    32.697646    33.730422    33.499872    2.7299113    60.961885    11.611788 
   43000    293.53746   -10195.489            0   -10140.207    762.26007    32.834638    33.586662    33.503263    2.6745245    62.306371    10.142898 
   44000    297.01775   -10193.403            0   -10137.465   -357.56086    32.627319    33.652706    33.715977    2.3546264    63.718226    8.6888491 
   45000     291.5502   -10195.575            0   -10140.666   -1002.4888    32.757857    33.652479    33.690819    2.3280018    65.095566    7.2328408 
   46000    297.56101   -10198.066            0   -10142.026    293.39084    32.597064    33.769098    33.462612    2.3431435    66.484621    5.7812715 
   47000    307.06684   -10195.925            0   -10138.095    776.91852    32.477637    33.833725    33.640734    2.0770373     67.86826    4.3320167 
   48000    308.67254    -10198.45            0   -10140.317   -309.12233     32.73296    33.723754    33.605953    2.5963874     69.26557    2.8860655 
   49000     297.2084   -10198.626            0   -10142.652   -1113.5314    32.901961    33.612215    33.495084    2.4392047    70.667463    1.4421931 
   50000    294.77859   -10199.867            0   -10144.351    374.25202    32.696226    33.589734     33.45262    2.5786681    72.060731            0 
Loop time of 72.0607 on 80 procs for 50000 steps with 1458 atoms

Performance: 59.949 ns/day, 0.400 hours/ns, 693.859 timesteps/s
99.2% CPU use with 80 MPI tasks x 1 OpenMP threads

MPI task timing breakdown:
Section |  min time  |  avg time  |  max time  |%varavg| %total
---------------------------------------------------------------
Pair    | 4.6338     | 5.8361     | 6.8726     |  22.2 |  8.10
Kspace  | 35.368     | 36.307     | 37.428     |   9.3 | 50.38
Neigh   | 0.14872    | 0.17768    | 0.20148    |   3.4 |  0.25
Comm    | 24.29      | 24.56      | 24.809     |   2.1 | 34.08
Output  | 0.00266    | 0.0027045  | 0.0040236  |   0.3 |  0.00
Modify  | 3.7777     | 4.4044     | 4.6768     |  15.5 |  6.11
Other   |            | 0.7733     |            |       |  1.07

Nlocal:    18.225 ave 24 max 12 min
Histogram: 3 2 5 7 10 30 13 3 4 3
Nghost:    1803.45 ave 1846 max 1771 min
Histogram: 9 1 19 9 11 10 9 6 2 4
Neighs:    4143.38 ave 5541 max 2746 min
Histogram: 3 2 8 9 20 13 15 4 4 2

Total # of neighbors = 331470
Ave neighs/atom = 227.346
Neighbor list builds = 1008
Dangerous builds = 7

# Stage 1: nvt_equilibriation
unfix int
restart         0
fix             int all nvt temp ${T1} ${T1} 0.5
fix             int all nvt temp 300 ${T1} 0.5
fix             int all nvt temp 300 300 0.5
run             50000
PPPM initialization ...
  using 12-bit tables for long-range coulomb (../kspace.cpp:323)
  G vector (1/distance) = 0.266715
  grid = 30 30 30
  stencil order = 5
  estimated absolute RMS force accuracy = 0.000140524
  estimated relative force accuracy = 9.75886e-06
  using double precision MKL FFT
  3d grid and FFT values/proc = 2548 384
Per MPI rank memory allocation (min/avg/max) = 3.44 | 3.69 | 3.703 Mbytes
Step Temp E_pair E_mol TotEng Press Lx Ly Lz Fmax CPU CPULeft 
   50000    294.77859   -10199.861            0   -10144.344    376.26028    32.696226    33.589734     33.45262    2.5786827            0            0 
   51000    308.55568   -10199.182            0   -10141.071   -536.32259    32.696226    33.589734     33.45262    2.4444973     1.233043    60.419105 
   52000    296.99789   -10197.908            0   -10141.973    683.61996    32.696226    33.589734     33.45262    2.2886965     2.529753    60.714071 
   53000    288.29469   -10198.766            0   -10144.471   -153.94652    32.696226    33.589734     33.45262    2.1117309    3.8185849    59.824497 
   54000    308.59451   -10199.234            0   -10141.115   -252.67071    32.696226    33.589734     33.45262    2.7097647     5.110512    58.770888 
   55000     285.1187   -10198.843            0   -10145.146    -280.3286    32.696226    33.589734     33.45262    2.5293699    6.3641379    57.277241 
   56000    302.32853   -10200.877            0   -10143.939    134.02187    32.696226    33.589734     33.45262    2.5003556    7.7103939    56.542897 
   57000    301.08245   -10199.116            0   -10142.413   -519.78973    32.696226    33.589734     33.45262    2.3573948     9.020581     55.41214 
   58000    295.87842   -10203.151            0   -10147.427    313.85794    32.696226    33.589734     33.45262     2.629558    10.356713    54.372749 
   59000    297.59262   -10200.242            0   -10144.196   -410.12209    32.696226    33.589734     33.45262    2.7470471    11.638171    53.018339 
   60000    296.64834   -10198.711            0   -10142.843    22.541145    32.696226    33.589734     33.45262    2.8223987    12.943685    51.774744 
   61000    300.07703   -10203.765            0    -10147.25   -1149.1493    32.696226    33.589734     33.45262    2.1712873    14.282111    50.636579 
   62000    293.01897    -10200.24            0   -10145.055   -867.04582    32.696226    33.589734     33.45262    2.3120395    15.534189    49.191601 
   63000    298.94482   -10199.872            0   -10143.571     11.98949    32.696226    33.589734     33.45262    2.1666433    16.904877    48.113883 
   64000    308.16595   -10199.814            0   -10141.776    771.05617    32.696226    33.589734     33.45262    2.5181769    18.235358    46.890923 
   65000    293.44056   -10199.554            0    -10144.29   -836.46402    32.696226    33.589734     33.45262    2.1263375    19.458652    45.403524 
   66000    295.51424   -10200.872            0   -10145.217    423.39836    32.696226    33.589734     33.45262    2.7068953    20.666812    43.916977 
   67000    311.25734    -10199.05            0    -10140.43   -825.95228    32.696226    33.589734     33.45262    2.9017607    21.918328    42.547345 
   68000    295.80772   -10200.561            0   -10144.851    131.58952    32.696226    33.589734     33.45262     2.638816    23.186387    41.220245 
   69000    299.43254    -10201.16            0   -10144.767    42.575647    32.696226    33.589734     33.45262    2.0793695    24.404461    39.817807 
   70000    305.49293   -10199.686            0   -10142.152   -1784.6298    32.696226    33.589734     33.45262    2.3772861    25.671294    38.506942 
   71000    301.77363   -10202.682            0   -10145.848   -701.87336    32.696226    33.589734     33.45262    2.5401733    26.928619    37.187142 
   72000     294.1308   -10201.161            0   -10145.767    208.58451    32.696226    33.589734     33.45262    2.4258857    28.188242    35.875946 
   73000    293.35807   -10198.263            0   -10143.014   -75.112234    32.696226    33.589734     33.45262    2.3708805    29.462393    34.586289 
   74000    293.85625   -10200.182            0   -10144.839    76.117329    32.696226    33.589734     33.45262    2.2564468    30.696356    33.254386 
   75000    293.17629   -10201.478            0   -10146.264   -2174.8469    32.696226    33.589734     33.45262    2.2705365    31.968209     31.96821 
   76000    291.76143   -10202.902            0   -10147.954   -787.66493    32.696226    33.589734     33.45262    2.5085117    33.276214    30.716506 
   77000     298.7696   -10200.336            0   -10144.068   -1659.6354    32.696226    33.589734     33.45262    2.5791233    34.558638    29.438841 
   78000    304.57693   -10202.932            0    -10145.57   -501.97384    32.696226    33.589734     33.45262    2.0624764    35.768629    28.103923 
   79000    288.87195   -10202.247            0   -10147.843   -1163.4648    32.696226    33.589734     33.45262      2.40503    36.996688    26.790706 
   80000    301.42577   -10201.693            0   -10144.925   -770.30821    32.696226    33.589734     33.45262    2.2578309    38.273518    25.515679 
   81000    298.14934   -10201.583            0   -10145.432   -702.42774    32.696226    33.589734     33.45262    2.5651252    39.505641    24.213135 
   82000    288.73621   -10202.633            0   -10148.255   -1068.1554    32.696226    33.589734     33.45262    2.0578754    40.740176     22.91635 
   83000    306.55561   -10202.216            0   -10144.482   -350.52358    32.696226    33.589734     33.45262    2.1272469    41.992381    21.632439 
   84000    306.16915   -10203.515            0   -10145.854   -807.29098    32.696226    33.589734     33.45262    2.1229193    43.228896     20.34301 
   85000    300.11817   -10203.983            0   -10147.461   -1257.3277    32.696226    33.589734     33.45262    2.6094171    44.579772    19.105617 
   86000    301.83069    -10202.87            0   -10146.026   -1522.9194    32.696226    33.589734     33.45262     2.364844    45.944924    17.867471 
   87000    309.61571   -10201.984            0   -10143.673   -645.10003    32.696226    33.589734     33.45262    2.6138506    47.402101    16.654793 
   88000    295.91053   -10204.044            0   -10148.315   -505.44282    32.696226    33.589734     33.45262    2.1896104    48.793187    15.408375 
   89000    304.95647   -10203.141            0   -10145.708   -1090.3742    32.696226    33.589734     33.45262     2.775826    50.147982    14.144303 
   90000    304.56007   -10202.896            0   -10145.538    -547.8945    32.696226    33.589734     33.45262    2.5934471    51.508419    12.877105 
   91000    288.30131   -10203.239            0   -10148.942   -397.57459    32.696226    33.589734     33.45262    2.0597316    52.801137    11.590494 
   92000    304.90505   -10202.731            0   -10145.308   -1628.0476    32.696226    33.589734     33.45262    2.2692422    54.058075    10.296776 
   93000    294.49216   -10202.993            0   -10147.531   -916.01806    32.696226    33.589734     33.45262    2.4318373    55.355193    9.0113107 
   94000    288.64085   -10205.871            0   -10151.511   -868.82292    32.696226    33.589734     33.45262    2.5921082    56.567289    7.7137214 
   95000    299.03444   -10205.272            0   -10148.954   -693.35066    32.696226    33.589734     33.45262     2.089951    57.863237    6.4292487 
   96000    297.75945   -10201.879            0   -10145.801   -698.74514    32.696226    33.589734     33.45262    2.9812515    59.084038    5.1377425 
   97000    310.02166   -10204.608            0   -10146.221   -663.29233    32.696226    33.589734     33.45262    2.1302056    60.320338    3.8502344 
   98000    297.11139   -10205.439            0   -10149.483   -9.4256014    32.696226    33.589734     33.45262    2.0250695    61.565251    2.5652188 
   99000    301.57473    -10202.83            0   -10146.034   -1467.6186    32.696226    33.589734     33.45262    2.6608649     62.84794     1.282611 
  100000    302.03239   -10204.018            0   -10147.136   -1203.5936    32.696226    33.589734     33.45262    2.2296388    64.099058            0 
Loop time of 64.0991 on 80 procs for 50000 steps with 1458 atoms

Performance: 67.396 ns/day, 0.356 hours/ns, 780.043 timesteps/s
99.3% CPU use with 80 MPI tasks x 1 OpenMP threads

MPI task timing breakdown:
Section |  min time  |  avg time  |  max time  |%varavg| %total
---------------------------------------------------------------
Pair    | 5.3154     | 6.3285     | 7.8171     |  22.3 |  9.87
Kspace  | 29.259     | 31.072     | 32.53      |  12.7 | 48.48
Neigh   | 0.12093    | 0.14459    | 0.18136    |   3.3 |  0.23
Comm    | 24.971     | 25.742     | 26.922     |   9.2 | 40.16
Output  | 0.0027492  | 0.002781   | 0.0034792  |   0.2 |  0.00
Modify  | 0.45749    | 0.51537    | 0.5765     |   3.2 |  0.80
Other   |            | 0.2938     |            |       |  0.46

Nlocal:    18.225 ave 24 max 13 min
Histogram: 5 7 5 17 13 13 3 7 5 5
Nghost:    1799.35 ave 1830 max 1767 min
Histogram: 2 4 8 14 9 14 13 8 5 3
Neighs:    4144.32 ave 5491 max 2950 min
Histogram: 4 6 7 17 13 13 4 9 4 3

Total # of neighbors = 331546
Ave neighs/atom = 227.398
Neighbor list builds = 821
Dangerous builds = 0

# Stage 2: main_nvt_simulation
unfix int
compute         lithiummsd lithium msd com yes
compute         scandiummsd scandium msd com yes
compute         chloridemsd chloride msd com yes
fix             lithiummsdt lithium ave/time 1 1 1000 c_lithiummsd[4] file super_al_msd_li.txt
fix             scandiummymsdt scandium ave/time 1 1 1000 c_scandiummsd[4] file super_al_msd_sc.txt
fix             chloridemymsdt chloride ave/time 1 1 1000 c_chloridemsd[4] file super_al_msd_cl.txt
dump            atom_info all custom 1000 super_al.lammpstrj element x y z q id type vx vy vz
dump_modify     atom_info append yes
dump_modify     atom_info sort id
dump_modify     atom_info element Li Sc Cl
restart         0
fix             int all nvt temp ${T1} ${T1} 0.5
fix             int all nvt temp 300 ${T1} 0.5
fix             int all nvt temp 300 300 0.5
run             2000000
PPPM initialization ...
  using 12-bit tables for long-range coulomb (../kspace.cpp:323)
  G vector (1/distance) = 0.266715
  grid = 30 30 30
  stencil order = 5
  estimated absolute RMS force accuracy = 0.000140524
  estimated relative force accuracy = 9.75886e-06
  using double precision MKL FFT
  3d grid and FFT values/proc = 2548 384
Per MPI rank memory allocation (min/avg/max) = 5.835 | 6.084 | 6.098 Mbytes
Step Temp E_pair E_mol TotEng Press Lx Ly Lz Fmax CPU CPULeft 
  100000    302.03239   -10204.018            0   -10147.136   -1203.5936    32.696226    33.589734     33.45262    2.2296388            0            0 
  101000    294.73656   -10203.413            0   -10147.904   -1938.7334    32.696226    33.589734     33.45262    2.4695771     1.248426    2495.6035 
  102000    296.60501   -10205.323            0   -10149.463   -1026.3967    32.696226    33.589734     33.45262    2.3303697     2.506016      2503.51 
  103000    307.79116   -10203.353            0   -10145.387   -238.66082    32.696226    33.589734     33.45262    2.2615276     3.735136    2486.3562 
  104000    296.56428    -10202.95            0   -10147.097   -697.56478    32.696226    33.589734     33.45262    3.0244809      5.00509    2497.5404 
  105000    304.29271   -10204.672            0   -10147.364   -673.44841    32.696226    33.589734     33.45262    2.4414683     6.249387    2493.5058 
  106000    299.72878   -10203.986            0   -10147.537   -1213.9134    32.696226    33.589734     33.45262    2.4010935    7.5472651    2508.2078 
  107000    298.49509    -10205.94            0   -10149.724   -1650.5435    32.696226    33.589734     33.45262    3.0453451    8.8569171    2521.6911 
  108000     304.1554    -10203.12            0   -10145.838   -940.49933    32.696226    33.589734     33.45262    2.2564007    10.077692    2509.3456 
  109000    297.86831   -10203.169            0   -10147.071   -614.04067    32.696226    33.589734     33.45262    2.0208202    11.331517    2506.7834 
  110000     288.3155   -10202.687            0   -10148.388   -853.23275    32.696226    33.589734     33.45262    2.2338954    12.575132    2502.4515 
  111000    302.92468   -10205.369            0   -10148.319   -670.71452    32.696226    33.589734     33.45262    2.0848962    13.917683    2516.5703 
  112000    293.75581   -10207.266            0   -10151.942   -128.25493    32.696226    33.589734     33.45262    2.6715058    15.260274    2528.1189 
  113000    305.89916   -10205.926            0   -10148.315   -775.70545    32.696226    33.589734     33.45262    2.1926748    16.526699    2526.0425 
  114000    298.35019   -10204.372            0   -10148.183   -973.70935    32.696226    33.589734     33.45262    2.7683353    17.832293    2529.6383 
  115000    290.95425    -10206.19            0   -10151.394   -569.30763    32.696226    33.589734     33.45262    2.4431724    19.102592    2527.9098 
  116000    303.34737   -10205.329            0   -10148.199   -639.53078    32.696226    33.589734     33.45262    2.8690744    20.397795    2529.3266 
  117000    306.18095   -10205.105            0   -10147.442   -1066.2475    32.696226    33.589734     33.45262    2.4731309    21.695213    2530.6829 
  118000    292.58611   -10206.293            0    -10151.19   -992.56233    32.696226    33.589734     33.45262    2.3232293    23.006585    2533.2807 
  119000    292.47032   -10204.585            0   -10149.504   -575.88039    32.696226    33.589734     33.45262    2.7032844     24.30987    2534.6239 
  120000    295.65428   -10203.595            0   -10147.913    18.784228    32.696226    33.589734     33.45262    2.3354303      25.6156    2535.9444 
  121000    301.91501   -10202.749            0   -10145.889   -535.23137    32.696226    33.589734     33.45262    2.6587722    26.910277    2535.9733 
  122000    290.74599   -10204.034            0   -10149.278   -1264.9495    32.696226    33.589734     33.45262    2.7164009      28.2163    2536.9019 
  123000    307.40674       -10207            0   -10149.105    -1116.498    32.696226    33.589734     33.45262    2.3339868    29.512635    2536.8035 
  124000    315.98735    -10204.56            0   -10145.049   -617.71974    32.696226    33.589734     33.45262    2.5583836     30.76182    2532.7232 
  125000    305.76183   -10205.735            0   -10148.151   -1042.0728    32.696226    33.589734     33.45262    2.3468829    31.997883    2527.8328 
  126000    306.76971   -10208.171            0   -10150.397   -553.35593    32.696226    33.589734     33.45262    1.9851987    33.230478    2522.9602 
  127000    305.02576   -10207.878            0   -10150.431   -1206.2672    32.696226    33.589734     33.45262    2.2099505    34.445985    2517.1085 
  128000    295.86415   -10202.738            0   -10147.018   -169.67379    32.696226    33.589734     33.45262    2.2772324    35.660219    2511.4983 
  129000    296.81917   -10207.536            0   -10151.635    -495.9065    32.696226    33.589734     33.45262    2.4930602    36.866275    2505.6355 
  130000    306.06214   -10207.113            0   -10149.472   -210.80685    32.696226    33.589734     33.45262    3.0363884    38.133215    2504.0811 
  131000    300.23026   -10205.014            0   -10148.471    386.04877    32.696226    33.589734     33.45262    2.4535808    39.329841      2498.08 
  132000    290.86527   -10207.389            0   -10152.609   -522.78386    32.696226    33.589734     33.45262    2.4999778     40.56146    2494.5298 
  133000    306.98831   -10206.762            0   -10148.946    276.57708    32.696226    33.589734     33.45262    2.0912314    41.798095    2491.4198 
  134000    299.89948   -10205.684            0   -10149.203   -659.74624    32.696226    33.589734     33.45262    2.6568271    43.021766    2487.6704 
  135000    288.70709   -10208.151            0   -10153.778    -777.2696    32.696226    33.589734     33.45262    2.5649566    44.211252    2482.1461 
  136000     289.2841   -10205.822            0    -10151.34   -1831.4036    32.696226    33.589734     33.45262    2.3405378    45.540432    2484.4836 
  137000    298.77776   -10205.602            0   -10149.333   -1501.2455    32.696226    33.589734     33.45262    2.5172052    46.894729    2487.9555 
  138000    308.77475     -10207.8            0   -10149.647   -469.75484    32.696226    33.589734     33.45262    2.3325879    48.167736    2486.9763 
  139000    296.69485   -10208.789            0   -10152.912   -492.00642    32.696226    33.589734     33.45262    2.2177134    49.393017    2483.5823 
  140000    299.80992   -10205.304            0    -10148.84   -811.61209    32.696226    33.589734     33.45262    2.8757023    50.592369    2479.0261 
  141000    303.41004   -10207.002            0    -10149.86   -192.50365    32.696226    33.589734     33.45262    2.2421535    51.819599    2475.9657 
  142000    297.43931   -10208.849            0   -10152.831   -1236.8474    32.696226    33.589734     33.45262     2.445908     53.08068    2474.5708 
  143000    295.08417   -10209.296            0   -10153.722   -1374.8342    32.696226    33.589734     33.45262    2.4619743    54.317599    2472.0824 
  144000    295.72576   -10205.765            0   -10150.071   -1382.6745    32.696226    33.589734     33.45262    2.1162659    55.552694    2469.5698 
  145000    298.40073   -10205.234            0   -10149.035   -644.24101    32.696226    33.589734     33.45262    2.3214373    56.780887    2466.8141 
  146000     294.8097   -10207.611            0   -10152.089   -1390.6963    32.696226    33.589734     33.45262    2.3644615    58.014934    2464.3735 
  147000    293.94481   -10207.048            0   -10151.688   -1907.9784    32.696226    33.589734     33.45262    2.4251295    59.279713    2463.2613 
  148000    306.71897   -10206.683            0   -10148.918   -394.79476    32.696226    33.589734     33.45262    3.7891778    60.566717    2463.0465 
  149000    297.13062   -10207.757            0   -10151.798   -1614.9603    32.696226    33.589734     33.45262    2.2855128    61.882798    2463.9457 
  150000    300.49951   -10206.329            0   -10149.735   -1028.6211    32.696226    33.589734     33.45262     2.258581    63.258625    2467.0864 
  151000    308.40652   -10207.317            0   -10149.234   -1309.9247    32.696226    33.589734     33.45262    2.6027541    64.628928    2469.8388 
  152000    296.97267   -10208.051            0   -10152.122   -1341.3892    32.696226    33.589734     33.45262    2.4268475     65.99675    2472.3398 
  153000    306.68879    -10206.09            0   -10148.331   -1276.7348    32.696226    33.589734     33.45262    2.3965631    67.310103    2472.6938 
  154000    304.12844   -10208.853            0   -10151.576   -1554.1474    32.696226    33.589734     33.45262    2.2615715     68.63308    2473.3329 
  155000    302.57975   -10209.267            0   -10152.281   -1430.1842    32.696226    33.589734     33.45262    2.4914207    69.947418    2473.5951 
  156000    297.72258   -10205.117            0   -10149.047   -702.02386    32.696226    33.589734     33.45262    2.2623571    71.178074     2470.896 
  157000    296.32891   -10208.859            0   -10153.051    579.25224    32.696226    33.589734     33.45262    2.4900667    72.432244      2469.05 
  158000    298.85291    -10208.55            0   -10152.266   -1308.5128    32.696226    33.589734     33.45262    2.1879979    73.652143     2466.077 
  159000    301.66362   -10207.117            0   -10150.304   -847.04632    32.696226    33.589734     33.45262    2.7674701    74.924836    2464.9001 
  160000    299.96887   -10207.773            0   -10151.279   -862.43611    32.696226    33.589734     33.45262    2.6387046    76.204846    2463.9567 
  161000    288.42793   -10206.998            0   -10152.678   -1001.5462    32.696226    33.589734     33.45262    2.8666221    77.541815    2464.8128 
  162000    300.55457   -10205.691            0   -10149.087   -794.63563    32.696226    33.589734     33.45262    2.4743419    78.886656    2465.8442 
  163000    295.38757   -10207.788            0   -10152.157   -1390.7589    32.696226    33.589734     33.45262    2.4557355    80.186558    2465.4185 
  164000    295.92887   -10207.527            0   -10151.794   -1178.8701    32.696226    33.589734     33.45262     2.292115    81.395363    2462.2098 
  165000    304.68271   -10206.298            0   -10148.916   -1764.5063    32.696226    33.589734     33.45262     2.328521    82.646045    2460.3092 
  166000    293.48022   -10207.637            0   -10152.365   -1583.3587    32.696226    33.589734     33.45262    3.0855195    83.950943    2460.0171 
  167000    300.72173   -10205.991            0   -10149.356   -1147.4929    32.696226    33.589734     33.45262    2.5055943    85.246236    2459.4176 
  168000    305.01155    -10206.64            0   -10149.196   -789.93445    32.696226    33.589734     33.45262    2.7183947    86.461038    2456.5107 
  169000    296.74042   -10207.175            0   -10151.289   -997.79284    32.696226    33.589734     33.45262    2.5920668    87.695554    2454.2046 
  170000    302.38335   -10207.993            0   -10151.045   -1833.5741    32.696226    33.589734     33.45262    2.5266124     88.95749    2452.6851 
  171000    306.86747   -10204.681            0   -10146.888   -411.56764    32.696226    33.589734     33.45262    2.5621063    90.204194     2450.759 
  172000    293.17492   -10206.323            0   -10151.108   -61.294642    32.696226    33.589734     33.45262    2.5980359    91.457344    2449.0245 
  173000     293.5756   -10206.129            0    -10150.84   -2274.7428    32.696226    33.589734     33.45262    3.4543031    92.726388    2447.7226 
  174000    302.78143   -10204.293            0    -10147.27   -1700.2685    32.696226    33.589734     33.45262    2.7269551    94.020602    2447.0768 
  175000    297.37896   -10206.593            0   -10150.587   -979.43735    32.696226    33.589734     33.45262    2.0061053    95.281337    2445.5543 
  176000    301.46107   -10208.017            0   -10151.242   -1241.9231    32.696226    33.589734     33.45262    2.0424067    96.517376    2443.4136 
  177000    313.42094   -10205.944            0   -10146.917    -1838.303    32.696226    33.589734     33.45262     2.431792    97.753355    2441.2949 
  178000    298.15554   -10206.624            0   -10150.472   -2194.5097    32.696226    33.589734     33.45262    2.8324208    98.974604    2438.8358 
  179000    306.60371   -10208.373            0    -10150.63   -1751.3814    32.696226    33.589734     33.45262    1.8839145    100.22609    2437.1433 
  180000    302.48248   -10206.149            0   -10149.182   -2413.6559    32.696226    33.589734     33.45262    2.5062619    101.51843    2436.4423 
  181000    301.93076   -10206.117            0   -10149.254   -978.28367    32.696226    33.589734     33.45262    2.2939597    102.84983    2436.6521 
  182000    289.41862   -10206.935            0   -10152.428   -1204.0438    32.696226    33.589734     33.45262    2.2709605    104.16515    2436.4484 
  183000    294.45389   -10205.614            0   -10150.159   -1531.1031    32.696226    33.589734     33.45262    2.3284482     105.5146     2437.006 
  184000    300.58691   -10206.843            0   -10150.233   -2338.7554    32.696226    33.589734     33.45262      2.49479    106.88866    2438.0795 
  185000    297.46382       -10208            0   -10151.978   -825.94969    32.696226    33.589734     33.45262    2.5163237    108.27174    2439.2987 
  186000    299.84007   -10206.496            0   -10150.027   -1960.7901    32.696226    33.589734     33.45262    2.2216727    109.69432    2441.3363 
  187000    305.23904   -10206.242            0   -10148.755   -1334.4277    32.696226    33.589734     33.45262    2.6391021    110.90486    2438.6321 
  188000    293.78264   -10207.194            0   -10151.865   -951.81168    32.696226    33.589734     33.45262    2.3717548    112.11981    2436.0577 
  189000    304.34045   -10207.278            0   -10149.961   -1200.5215    32.696226    33.589734     33.45262    2.2548315     113.3864    2434.6227 
  190000    308.19387   -10206.229            0   -10148.186   -941.27697    32.696226    33.589734     33.45262    2.2670994    114.61784    2432.4452 
  191000    293.04688   -10206.973            0   -10151.783   -1427.2709    32.696226    33.589734     33.45262    2.1148289    115.89671    2431.2838 
  192000    299.44908   -10208.325            0   -10151.929   -2150.1512    32.696226    33.589734     33.45262    1.9956712     117.1471    2429.5289 
  193000    307.17464   -10206.055            0   -10148.204   -2162.0155    32.696226    33.589734     33.45262    2.3362748    118.34439    2426.6964 
  194000    297.72629   -10207.063            0   -10150.992   -1227.8858    32.696226    33.589734     33.45262    3.1776004    119.60737    2425.2303 
  195000    303.22931   -10208.416            0   -10151.308   -1581.0881    32.696226    33.589734     33.45262    2.4137699    120.81083    2422.5751 
  196000    316.65954   -10206.281            0   -10146.644   -65.324961    32.696226    33.589734     33.45262    2.5897702    122.03148    2420.2911 
  197000    304.37051    -10208.34            0   -10151.017   -1213.6645    32.696226    33.589734     33.45262    2.7585881    123.30186    2419.0045 
  198000    297.34278   -10207.504            0   -10151.505   -784.71998    32.696226    33.589734     33.45262    2.4612016    124.58036    2417.8761 
  199000    315.67081   -10206.833            0   -10147.382   -1009.7445    32.696226    33.589734     33.45262    2.3185305    125.81062     2415.818 
  200000    293.59859   -10206.363            0   -10151.069   -1217.8229    32.696226    33.589734     33.45262    2.6882774    127.05572    2414.0586 
  201000    306.04844   -10208.568            0   -10150.929   -713.73013    32.696226    33.589734     33.45262    2.1916228    128.30915    2412.4661 
  202000    296.43724   -10207.622            0   -10151.794   -1718.7657    32.696226    33.589734     33.45262    2.2640955    129.52658    2410.2103 
  203000    293.66098   -10208.591            0   -10153.285    -1588.534    32.696226    33.589734     33.45262    2.1213295    130.77818    2408.6039 
  204000    300.71762   -10205.772            0   -10149.138   -1832.9806    32.696226    33.589734     33.45262    2.8637099    131.99469    2406.3648 
  205000    300.07035   -10207.964            0   -10151.451    -1308.788    32.696226    33.589734     33.45262    2.3156858    133.26942    2405.1957 
  206000    302.17357   -10208.322            0   -10151.413   -2264.2388    32.696226    33.589734     33.45262    2.2201921    134.51098     2403.432 
  207000    295.10892   -10204.164            0   -10148.585   -1784.8639    32.696226    33.589734     33.45262    2.3291282    135.76889    2401.9674 
  208000    304.57619   -10209.623            0   -10152.262   -1844.9044    32.696226    33.589734     33.45262    2.9642711    137.03164    2400.5913 
  209000     301.6884    -10207.26            0   -10150.443   -1282.6377    32.696226    33.589734     33.45262     2.624989    138.34147    2400.0341 
  210000    302.90131   -10206.368            0   -10149.322   -2150.7582    32.696226    33.589734     33.45262      2.85674    139.69861    2400.2762 
  211000    301.19388   -10208.488            0   -10151.763   -1688.7274    32.696226    33.589734     33.45262    2.3558904    140.99741    2399.4965 
  212000     299.2195   -10206.305            0   -10149.952   -2336.6841    32.696226    33.589734     33.45262    2.1399509    142.32513    2399.1951 
  213000    310.39016    -10205.79            0   -10147.334    -511.6501    32.696226    33.589734     33.45262     2.744228    143.62615    2398.4297 
  214000    301.52609   -10209.047            0    -10152.26   -3011.1677    32.696226    33.589734     33.45262    2.2849316    144.95985    2398.1954 
  215000    301.15704   -10207.726            0   -10151.008   -2038.2504    32.696226    33.589734     33.45262    2.0626146    146.29859    2398.0247 
  216000    307.09164   -10206.557            0   -10148.722   -281.61335    32.696226    33.589734     33.45262    2.5304777    147.60191    2397.2586 
  217000    294.78925   -10208.808            0    -10153.29   -1031.7974    32.696226    33.589734     33.45262    2.4210334    148.87353    2395.9732 
  218000    301.18054   -10206.997            0   -10150.275   -1120.2966    32.696226    33.589734     33.45262    2.3864389    150.22379    2395.9422 
  219000    300.83092   -10207.435            0   -10150.779   -2155.8518    32.696226    33.589734     33.45262    2.8257957    151.47362    2394.3016 
  220000    299.33521   -10209.579            0   -10153.204   -757.92002    32.696226    33.589734     33.45262    2.7199901     152.6634    2391.7266 
  221000    312.93959    -10208.67            0   -10149.733   -541.11996    32.696226    33.589734     33.45262    3.1237205    153.92603    2390.3058 
  222000    288.55458   -10207.577            0   -10153.233   -1952.2805    32.696226    33.589734     33.45262    2.2118023    155.12746    2387.9457 
  223000    295.93857   -10209.107            0   -10153.372   -971.66181    32.696226    33.589734     33.45262     2.368703     156.3701    2386.2331 
  224000    302.63257   -10207.711            0   -10150.715   -1537.4081    32.696226    33.589734     33.45262    1.9801673    157.61549    2384.5699 
  225000    306.46277   -10207.994            0   -10150.277   -502.47161    32.696226    33.589734     33.45262    2.0759267    158.80773     2382.116 
  226000    298.58872   -10209.955            0   -10153.721   -1539.0193    32.696226    33.589734     33.45262    2.3397104    160.10339    2381.2203 
  227000    296.40664   -10206.178            0   -10150.356   -659.44487    32.696226    33.589734     33.45262    2.4000506    161.35198    2379.6241 
  228000    307.38873   -10208.695            0   -10150.804   -906.49377    32.696226    33.589734     33.45262    3.6634609    162.60589    2378.1112 
  229000    295.21843   -10209.199            0     -10153.6   -829.60218    32.696226    33.589734     33.45262    2.3924442    163.83037    2376.1754 
  230000    291.75354   -10207.888            0   -10152.941   -1357.6247    32.696226    33.589734     33.45262    2.2494545    165.16563     2375.844 
  231000    310.77684   -10208.552            0   -10150.023    -619.5884    32.696226    33.589734     33.45262    2.3734865    166.49825    2375.4598 
  232000    289.12115   -10207.964            0   -10153.514   -1549.6769    32.696226    33.589734     33.45262    2.3396112    167.79837    2374.6012 
  233000    299.45477   -10208.935            0   -10152.538   -669.89393    32.696226    33.589734     33.45262    2.5523034    169.05081    2373.0666 
  234000    301.42835   -10207.057            0   -10150.288   -559.07352    32.696226    33.589734     33.45262     2.167346    170.28044    2371.2186 
  235000    296.40608   -10209.258            0   -10153.436   -1578.1829    32.696226    33.589734     33.45262    2.0725174    171.54772       2369.9 
  236000    313.09104   -10208.339            0   -10149.374   -1609.9989    32.696226    33.589734     33.45262    3.2378019    172.76925     2367.955 
  237000    302.83473   -10208.107            0   -10151.073   -2005.6842    32.696226    33.589734     33.45262    2.5859461    174.01332    2366.3272 
  238000    298.59396   -10208.831            0   -10152.596   -310.14732    32.696226    33.589734     33.45262    2.1969211    175.24487    2364.5359 
  239000    305.91503   -10209.336            0   -10151.723   -1610.8025    32.696226    33.589734     33.45262    1.9609368    176.50767     2363.171 
  240000    306.45535   -10209.669            0   -10151.954   -1176.7655    32.696226    33.589734     33.45262    2.8207333    177.75493    2361.6012 
  241000    291.84364   -10207.326            0   -10152.363   -1710.0571    32.696226    33.589734     33.45262    2.4385142    178.98895    2359.8614 
  242000    297.57494   -10207.772            0   -10151.729    -1517.394    32.696226    33.589734     33.45262    2.2235932    180.25537    2358.5527 
  243000    295.87959   -10208.351            0   -10152.628   -1798.1881    32.696226    33.589734     33.45262    2.3936271    181.57356    2357.9168 
  244000    290.78605   -10209.827            0   -10155.063   -1098.8175    32.696226    33.589734     33.45262    2.4409517     182.8597    2356.8583 
  245000    307.68376     -10208.3            0   -10150.353   -1196.7672    32.696226    33.589734     33.45262    2.1725991     184.1723    2356.1353 
  246000    302.03315   -10209.662            0   -10152.779   -24.222777    32.696226    33.589734     33.45262    2.2523754    185.53136    2355.9941 
  247000    291.61874   -10208.605            0   -10153.684   -551.35745    32.696226    33.589734     33.45262     2.640584    186.85771    2355.4241 
  248000    306.68163   -10207.161            0   -10149.403   -846.48592    32.696226    33.589734     33.45262    2.2080626     188.2135    2355.2122 
  249000    303.91424   -10210.564            0   -10153.328   -2185.5856    32.696226    33.589734     33.45262    2.5717654    189.51111    2354.2622 
  250000    310.10857    -10210.23            0   -10151.827   -1226.5411    32.696226    33.589734     33.45262    2.5886522    190.76742    2352.7982 
  251000    311.61297   -10207.712            0   -10149.026    -982.9497    32.696226    33.589734     33.45262    2.7082828    192.02276     2351.325 
  252000    298.71922   -10208.707            0   -10152.449   -494.78641    32.696226    33.589734     33.45262    2.4357512    193.23121    2349.2847 
  253000    291.61123   -10208.611            0   -10153.692   -1441.8815    32.696226    33.589734     33.45262    2.5014474    194.51066    2348.1123 
  254000    311.21981   -10207.904            0   -10149.292   -785.01907    32.696226    33.589734     33.45262    2.2503397    195.86988    2347.8948 
  255000    306.32332   -10209.903            0   -10152.213   -1355.7945    32.696226    33.589734     33.45262    2.4208119    197.17123    2346.9736 
  256000    302.33532   -10209.746            0   -10152.807   -1255.3787    32.696226    33.589734     33.45262    2.7899275    198.37476    2344.8914 
  257000    308.45388   -10208.668            0   -10150.576    -1168.055    32.696226    33.589734     33.45262    2.9707681    199.61198    2343.2158 
  258000    292.92175   -10206.142            0   -10150.975   -700.07266    32.696226    33.589734     33.45262    2.4531501    200.88009    2341.9059 
  259000     299.3297   -10209.879            0   -10153.506   -849.97389    32.696226    33.589734     33.45262    2.7872853    202.12832    2340.3662 
  260000    292.96352    -10205.84            0   -10150.665   -922.66288    32.696226    33.589734     33.45262    2.9660947    203.34403    2338.4563 
  261000    301.84753   -10206.937            0   -10150.089   -137.20274    32.696226    33.589734     33.45262    2.3011141    204.58109    2336.7989 
  262000    294.59072   -10209.255            0   -10153.774   -1250.3874    32.696226    33.589734     33.45262    2.6642751    205.82004    2335.1681 
  263000     300.8664   -10208.169            0   -10151.506   -2329.0012    32.696226    33.589734     33.45262    2.4268077    207.02331      2333.14 
  264000     297.6012   -10207.244            0   -10151.196   -803.26234    32.696226    33.589734     33.45262    3.0960363      208.225    2331.1043 
  265000    296.37971   -10210.491            0   -10154.673   -1141.2102    32.696226    33.589734     33.45262    2.2106345    209.42218    2329.0285 
  266000    311.69423   -10209.784            0   -10151.082   -942.11149    32.696226    33.589734     33.45262    2.6344143    210.66267    2327.4418 
  267000    296.74374   -10208.087            0     -10152.2   -808.51427    32.696226    33.589734     33.45262    2.3766581    211.93042    2326.1585 
  268000    294.23369   -10210.216            0   -10154.803    -306.1187    32.696226    33.589734     33.45262    1.9546933    213.16065    2324.4661 
  269000    287.04041   -10208.716            0   -10154.657   -705.10642    32.696226    33.589734     33.45262    2.4737425    214.41055    2322.9924 
  270000    299.76696    -10208.03            0   -10151.574    -735.2207    32.696226    33.589734     33.45262    2.5784629    215.66914    2321.6149 
  271000    297.61875   -10209.805            0   -10153.753   -1357.0367    32.696226    33.589734     33.45262    2.0308547    216.88371    2319.7679 
  272000    305.18177   -10212.016            0    -10154.54    -616.8252    32.696226    33.589734     33.45262    2.5409285    218.09836    2317.9291 
  273000    293.76933   -10206.743            0   -10151.416    181.76409    32.696226    33.589734     33.45262    2.6662197    219.33897    2316.3716 
  274000    298.90791   -10210.912            0   -10154.618   -1618.7491    32.696226    33.589734     33.45262    2.4297876    220.60803    2315.1165 
  275000    307.27112   -10211.261            0   -10153.392   -1194.2813    32.696226    33.589734     33.45262    2.2080108    221.90629    2314.1656 
  276000    311.72868   -10209.907            0   -10151.198   -1003.4244    32.696226    33.589734     33.45262    2.6309749     223.2077    2313.2434 
  277000    298.41395    -10210.94            0   -10154.739   -1112.1361    32.696226    33.589734     33.45262    2.3929965    224.54063    2312.6417 
  278000    305.03051   -10209.984            0   -10152.537   -868.59044    32.696226    33.589734     33.45262    2.6351085    225.95692    2312.8849 
  279000    324.29789   -10208.175            0   -10147.099   -1012.6189    32.696226    33.589734     33.45262    2.0453554    227.35529    2312.9273 
  280000    308.37712   -10206.861            0   -10148.784   -1839.3669    32.696226    33.589734     33.45262    2.4528728    228.76306    2313.0487 
  281000    294.37519   -10209.345            0   -10153.905   -1124.2693    32.696226    33.589734     33.45262    2.0586462    230.07174    2312.1574 
  282000     289.3124   -10207.688            0   -10153.201   -1107.7313    32.696226    33.589734     33.45262    2.8839589    231.30897    2310.5479 
  283000    310.86498   -10209.803            0   -10151.258   -675.51347    32.696226    33.589734     33.45262    2.7292811    232.49652    2308.4491 
  284000    295.09782   -10210.295            0   -10154.718   -966.56994    32.696226    33.589734     33.45262    2.3280825    233.71568    2306.6722 
  285000     293.5587   -10209.324            0   -10154.037   -930.94293    32.696226    33.589734     33.45262    2.3578545    234.95244     2305.074 
  286000    302.58061   -10208.913            0   -10151.927   -798.67836    32.696226    33.589734     33.45262    2.7871323    236.17619    2303.3527 
  287000    297.61472    -10209.75            0   -10153.699   -182.48502    32.696226    33.589734     33.45262    2.6619673     237.3738    2301.3834 
  288000    297.44511   -10211.617            0   -10155.599   -1609.7598    32.696226    33.589734     33.45262    2.2748131    238.62866    2299.9741 
  289000    306.61288   -10209.216            0   -10151.471   -926.47244    32.696226    33.589734     33.45262    2.3815454    239.85311     2298.275 
  290000    297.78249   -10210.333            0   -10154.251   -633.19903    32.696226    33.589734     33.45262    2.5696488    241.09015     2296.701 
  291000    301.50489   -10210.433            0    -10153.65   -868.22092    32.696226    33.589734     33.45262    3.5646288    242.33594    2295.2132 
  292000    307.57331   -10209.242            0   -10151.317   -1105.9023    32.696226    33.589734     33.45262    2.7181054    243.56209     2293.543 
  293000    299.75366   -10211.324            0    -10154.87   -1329.1635    32.696226    33.589734     33.45262    2.0879398    244.80448    2292.0295 
  294000    301.03142   -10210.234            0    -10153.54   -1598.1331    32.696226    33.589734     33.45262    2.4403126    246.01898    2290.2592 
  295000    312.46259   -10207.556            0    -10148.71   -1455.9335    32.696226    33.589734     33.45262      2.21698     247.2619    2288.7576 
  296000    297.49076    -10208.98            0   -10152.952   -237.19103    32.696226    33.589734     33.45262    3.0107298    248.52342    2287.4298 
  297000    295.83159   -10209.902            0   -10154.187   -539.10099    32.696226    33.589734     33.45262    2.3114698     249.7778    2286.0374 
  298000    298.78271    -10206.29            0    -10150.02   -992.87855    32.696226    33.589734     33.45262    2.1807137    250.99183    2284.2792 
  299000    294.15793   -10208.483            0   -10153.084   -654.75855    32.696226    33.589734     33.45262    2.3573549    252.21467    2282.6062 
  300000     303.6517   -10211.158            0   -10153.971   -1491.0195    32.696226    33.589734     33.45262    2.1045511    253.48862    2281.3976 
  301000    296.41626   -10208.313            0   -10152.489   -1379.9521    32.696226    33.589734     33.45262    2.3037407    254.78087    2280.3522 
  302000    307.74356   -10208.968            0    -10151.01    -347.9123    32.696226    33.589734     33.45262    2.3820953    255.98151    2278.4889 
  303000    293.92475   -10210.184            0   -10154.829   -809.35988    32.696226    33.589734     33.45262     2.369262    257.31502    2277.8083 
  304000    304.15202   -10209.836            0   -10152.555   -415.43557    32.696226    33.589734     33.45262    2.2434655    258.62018    2276.8718 
  305000    311.39141   -10207.162            0   -10148.517    539.72958    32.696226    33.589734     33.45262    2.1658758    259.95261    2276.1705 
  306000    305.20663   -10209.256            0   -10151.776   -865.53746    32.696226    33.589734     33.45262    2.4350452    261.24735    2275.1347 
  307000     299.0878   -10210.482            0   -10154.154   -1809.5572    32.696226    33.589734     33.45262    2.3948184    262.55563    2274.2137 
  308000    296.97347    -10207.79            0    -10151.86   -982.00023    32.696226    33.589734     33.45262    2.2852261    263.88076    2273.4342 
  309000    316.28087   -10211.388            0   -10151.822   -1160.2693    32.696226    33.589734     33.45262    1.9257322    265.23015    2272.8575 
  310000    300.00415   -10210.585            0   -10154.085   -479.77844    32.696226    33.589734     33.45262    2.6027451    266.54013    2271.9373 
  311000    302.61548    -10209.01            0   -10152.018   -818.39833    32.696226    33.589734     33.45262    3.3119778    267.90695    2271.4954 
  312000    300.67428   -10209.088            0   -10152.462   -1760.4441    32.696226    33.589734     33.45262    2.7562771    269.28504    2271.1399 
  313000    304.24746   -10212.824            0   -10155.524    -1603.161    32.696226    33.589734     33.45262    2.1312231    270.55956    2269.9058 
  314000    303.57589   -10208.625            0   -10151.452    149.86777    32.696226    33.589734     33.45262    2.5754489    271.84916    2268.7972 
  315000    306.38937   -10209.302            0   -10151.599   -1657.1219    32.696226    33.589734     33.45262    2.2997645    273.10016    2267.3664 
  316000    297.16761   -10210.266            0     -10154.3   -1064.1094    32.696226    33.589734     33.45262    2.2158013    274.34411    2265.8791 
  317000    292.00011   -10209.408            0   -10154.415   -750.35908    32.696226    33.589734     33.45262    2.3785055    275.59787    2264.4746 
  318000    303.73176    -10208.19            0   -10150.988   -1628.2312    32.696226    33.589734     33.45262    2.2612511    276.83294    2262.9188 
  319000    305.10327   -10212.378            0   -10154.917   -1134.1797    32.696226    33.589734     33.45262    2.7355873    278.11947    2261.7843 
  320000    293.03448   -10209.404            0   -10154.216   -978.23168    32.696226    33.589734     33.45262    2.2769313     279.3527    2260.2173 
  321000    301.35399   -10208.839            0   -10152.085    -179.7858    32.696226    33.589734     33.45262    2.2815485    280.56822    2258.5107 
  322000    312.07654   -10209.038            0   -10150.264   -364.56384    32.696226    33.589734     33.45262    2.8161894    281.79771    2256.9204 
  323000    300.44639   -10211.297            0   -10154.713   -998.44777    32.696226    33.589734     33.45262    2.1832593    282.99275    2255.0589 
  324000     301.5182   -10210.097            0   -10153.312   -1293.9329    32.696226    33.589734     33.45262    2.6600588    284.20294    2253.3233 
  325000    309.32596    -10209.49            0   -10151.234   -1722.1447    32.696226    33.589734     33.45262    2.2168788    285.45088    2251.8903 
  326000    290.71025   -10208.371            0   -10153.621   -1877.2314    32.696226    33.589734     33.45262    2.3778453    286.69566    2250.4341 
  327000    302.36288   -10210.908            0   -10153.963   -1348.1291    32.696226    33.589734     33.45262    2.7723222    288.02423    2249.6342 
  328000    294.69839   -10209.559            0   -10154.058    15.004165    32.696226    33.589734     33.45262    2.5508747    289.31358    2248.5248 
  329000    303.47052   -10209.419            0   -10152.266   -767.53708    32.696226    33.589734     33.45262    2.1712002    290.60409    2247.4229 
  330000    301.61748   -10211.372            0   -10154.568   -1484.5016    32.696226    33.589734     33.45262    2.1547649    291.84596     2245.945 
  331000    300.48289   -10211.793            0   -10155.202   -1359.6907    32.696226    33.589734     33.45262    2.4313049    293.11172    2244.6521 
  332000    305.55346   -10209.093            0   -10151.547   -889.50697    32.696226    33.589734     33.45262    2.5727887    294.34551    2243.1158 
  333000    302.29657   -10211.652            0    -10154.72   -838.47638    32.696226    33.589734     33.45262    2.4585515    295.57869    2241.5774 
  334000    302.65561   -10210.345            0   -10153.345   -502.85951    32.696226    33.589734     33.45262    2.1464186    296.81276    2240.0484 
  335000    309.19626   -10210.256            0   -10152.025   -2078.2782    32.696226    33.589734     33.45262    2.0314195    298.04982    2238.5444 
  336000    301.23436   -10211.603            0   -10154.871   -372.87191    32.696226    33.589734     33.45262    2.3805451    299.32843    2237.3532 
  337000    301.39837   -10210.332            0   -10153.569    -1258.711    32.696226    33.589734     33.45262    2.1361177    300.62726    2236.3116 
  338000    295.79252   -10206.917            0    -10151.21   -2364.4806    32.696226    33.589734     33.45262    2.5302071    301.88759    2234.9829 
  339000    292.05672   -10209.102            0   -10154.098   -1122.2113    32.696226    33.589734     33.45262    3.4729474    303.18265    2233.9106 
  340000    286.21622   -10207.232            0   -10153.328   -648.69351    32.696226    33.589734     33.45262    2.2150831    304.51427    2233.1046 
  341000    311.12969    -10208.12            0   -10149.525   -1235.6739    32.696226    33.589734     33.45262    2.5432759    305.86764     2232.453 
  342000    300.74283   -10210.377            0   -10153.737    457.09786    32.696226    33.589734     33.45262    2.0484708     307.1743    2231.4563 
  343000    307.84167   -10212.705            0   -10154.729   -551.63279    32.696226    33.589734     33.45262    2.4714102    308.47908    2230.4434 
  344000    315.75389   -10210.148            0   -10150.681     581.6213    32.696226    33.589734     33.45262    2.6699667    309.77872    2229.3911 
  345000    306.30616   -10211.695            0   -10154.008   -552.71115    32.696226    33.589734     33.45262    2.2505138     311.0468    2228.1108 
  346000    296.11704   -10210.165            0   -10154.396   -1175.2525    32.696226    33.589734     33.45262    2.4460686    312.27927    2226.5766 
  347000      298.976   -10208.188            0   -10151.881   -2223.6217    32.696226    33.589734     33.45262    2.4177731    313.50081    2224.9673 
  348000    305.61688   -10207.652            0   -10150.094   -1409.9162    32.696226    33.589734     33.45262    2.6335204    314.73274    2223.4345 
  349000    298.62328   -10211.048            0   -10154.808   -1446.5448    32.696226    33.589734     33.45262    2.9161593    315.97518    2221.9781 
  350000    295.13405   -10209.197            0   -10153.614   -1515.0468    32.696226    33.589734     33.45262    2.4277133    317.19851    2220.3896 
  351000    312.33591   -10209.588            0   -10150.765   -559.76013    32.696226    33.589734     33.45262    2.9038004    318.48044    2219.2123 
  352000    281.61799   -10208.044            0   -10155.007   -438.26183    32.696226    33.589734     33.45262    2.3895754    319.73155    2217.8205 
  353000    304.26725   -10209.596            0   -10152.293    -906.1359    32.696226    33.589734     33.45262    2.4074656    321.06358    2216.9884 
  354000    304.09981   -10209.919            0   -10152.648   -1548.0376    32.696226    33.589734     33.45262    2.0866509    322.34916    2215.8333 
  355000    304.19902   -10213.142            0   -10155.851   -1462.4511    32.696226    33.589734     33.45262    2.1709596    323.68666    2215.0322 
  356000    305.41708   -10209.867            0   -10152.348   -767.69304    32.696226    33.589734     33.45262    2.2596604    324.93126    2213.5942 
  357000    301.98811   -10210.288            0   -10153.414   -1411.4068    32.696226    33.589734     33.45262    2.7669677    326.14404    2211.9419 
  358000    297.03742   -10209.828            0   -10153.887    -987.2415    32.696226    33.589734     33.45262    2.3550558     327.3777    2210.4339 
  359000    296.03991   -10208.783            0   -10153.029   -724.09077    32.696226    33.589734     33.45262    2.4409096    328.63101    2209.0602 
  360000    315.51653   -10210.231            0   -10150.809   -834.33602    32.696226    33.589734     33.45262    2.2274406    329.84584    2207.4299 
  361000    289.11536     -10209.2            0   -10154.751    -35.00479    32.696226    33.589734     33.45262    2.5063316    331.08492    2205.9643 
  362000     303.0229    -10211.33            0   -10154.261   -1559.9253    32.696226    33.589734     33.45262    2.2402131    332.34207    2204.6203 
  363000     310.8821   -10208.303            0   -10149.754   -958.10371    32.696226    33.589734     33.45262    2.3149502    333.60041    2203.2849 
  364000    304.44239    -10210.08            0   -10152.744   -676.71761    32.696226    33.589734     33.45262    2.5030341    334.83379    2201.7858 
  365000    294.13049   -10210.412            0   -10155.017   -1284.0959    32.696226    33.589734     33.45262    2.6590758    336.05082    2200.1818 
  366000    292.61383   -10207.481            0   -10152.372   -904.67032    32.696226    33.589734     33.45262    2.4028523    337.26795    2198.5813 
  367000    298.85551   -10208.423            0   -10152.139   -1503.2484    32.696226    33.589734     33.45262    2.3463813    338.52253    2197.2267 
  368000     306.0268   -10212.742            0   -10155.107   -968.63307    32.696226    33.589734     33.45262    2.5481759    339.78953    2195.9532 
  369000    294.62851   -10209.067            0   -10153.579   -1267.9498    32.696226    33.589734     33.45262    2.5643899    341.08126    2194.8389 
  370000    304.49365   -10207.599            0   -10150.253   -898.03713    32.696226    33.589734     33.45262    2.3090002    342.38946    2193.8287 
  371000    302.52207   -10210.297            0   -10153.322   -1274.4311    32.696226    33.589734     33.45262    2.7964919    343.70242    2192.8468 
  372000    292.70155   -10210.467            0   -10155.342   -956.62658    32.696226    33.589734     33.45262    2.3985004    345.06929    2192.2049 
  373000    298.88447   -10208.105            0   -10151.815   -1292.6729    32.696226    33.589734     33.45262    2.1751159    346.42413    2191.4816 
  374000    297.83852   -10209.957            0   -10153.864   -570.69178    32.696226    33.589734     33.45262    2.4775296    347.75683    2190.6142 
  375000    295.83574   -10210.653            0   -10154.938   -1210.7308    32.696226    33.589734     33.45262    2.2807625    349.04737     2189.479 
  376000    302.34517   -10208.888            0   -10151.946   -2323.3475    32.696226    33.589734     33.45262    2.6438059    350.34167    2188.3661 
  377000    296.68645   -10211.799            0   -10155.924   -739.81689    32.696226    33.589734     33.45262    2.1404635    351.73429    2187.8635 
  378000    304.35957    -10211.88            0   -10154.559   -2092.7952    32.696226    33.589734     33.45262    2.2919438    352.98592    2186.4812 
  379000    302.93046   -10210.331            0   -10153.279   -879.86927    32.696226    33.589734     33.45262    2.8514773    354.21894    2184.9849 
  380000     300.6034   -10211.036            0   -10154.423   -1373.4712    32.696226    33.589734     33.45262    2.0222336    355.48772    2183.7103 
  381000    306.81331   -10211.983            0     -10154.2   -2037.9229    32.696226    33.589734     33.45262    2.6858883    356.73727     2182.318 
  382000    294.81696   -10209.622            0   -10154.099   -1947.2673    32.696226    33.589734     33.45262    2.3875254    357.93411    2180.6057 
  383000    307.51003   -10209.984            0    -10152.07   -509.56034    32.696226    33.589734     33.45262     2.313244    359.14303    2178.9703 
  384000    304.10275   -10210.624            0   -10153.352   -2560.0343    32.696226    33.589734     33.45262    2.2233566    360.36903    2177.4411 
  385000    295.40271   -10211.047            0   -10155.413   -1451.5521    32.696226    33.589734     33.45262    2.8075877    361.62886    2176.1175 
  386000    299.64956   -10208.585            0   -10152.152   -1791.0489    32.696226    33.589734     33.45262    2.3256946      362.854    2174.5866 
  387000    302.65992    -10210.59            0    -10153.59   -898.58902    32.696226    33.589734     33.45262    2.2680623    364.09961    2173.1799 
  388000    298.75059   -10212.358            0   -10156.094    -1752.109    32.696226    33.589734     33.45262    2.3106679      365.314    2171.5888 
  389000    304.99751   -10209.063            0   -10151.623   -151.59877    32.696226    33.589734     33.45262     3.015166    366.52108     2169.957 
  390000    294.81513   -10209.199            0   -10153.676   -1376.4055    32.696226    33.589734     33.45262    2.1373957    367.71929    2168.2758 
  391000    297.28044   -10210.955            0   -10154.968   -2073.8881    32.696226    33.589734     33.45262    2.2507637    368.98819    2167.0131 
  392000    304.24811   -10211.099            0     -10153.8   -942.54021    32.696226    33.589734     33.45262    3.8092501    370.23786    2165.6379 
  393000    305.17809   -10208.988            0   -10151.513   -871.72065    32.696226    33.589734     33.45262     2.406027    371.48462    2164.2466 
  394000    308.38426   -10208.429            0    -10150.35   -764.35587    32.696226    33.589734     33.45262    3.2634901    372.72822    2162.8379 
  395000    301.59359   -10210.679            0   -10153.879   -1772.1598    32.696226    33.589734     33.45262    2.2692128    373.97251    2161.4343 
  396000    302.96097   -10210.461            0   -10153.404   -1320.7588    32.696226    33.589734     33.45262    2.4615461    375.21465    2160.0195 
  397000    302.74274   -10209.494            0   -10152.478   -1745.0547    32.696226    33.589734     33.45262    2.4093787    376.40345    2158.2999 
  398000    298.54996   -10211.429            0   -10155.202    -1846.971    32.696226    33.589734     33.45262    2.0478877    377.60792    2156.6734 
  399000    287.31965   -10208.723            0   -10154.611   -1794.6061    32.696226    33.589734     33.45262    2.6490608     378.8361    2155.1847 
  400000    292.43233   -10206.906            0   -10151.831   -1145.6348    32.696226    33.589734     33.45262    2.3614013    380.07196    2153.7411 
  401000    297.94406    -10211.51            0   -10155.397   -1772.4099    32.696226    33.589734     33.45262    2.4651657    381.43181    2152.9988 
  402000    312.52044    -10213.21            0   -10154.353   -1041.7136    32.696226    33.589734     33.45262    2.2931533    382.74607    2151.9961 
  403000    306.05923   -10210.258            0   -10152.617    -1117.757    32.696226    33.589734     33.45262    2.3099192    384.08838    2151.1484 
  404000     306.6569   -10209.058            0   -10151.305   -637.16124    32.696226    33.589734     33.45262    2.5358345    385.41568    2150.2138 
  405000    293.91229    -10210.37            0   -10155.017   -1066.4778    32.696226    33.589734     33.45262    2.3839756    386.75731    2149.3562 
  406000    304.37759   -10209.828            0   -10152.504   -1399.5261    32.696226    33.589734     33.45262    2.3970391    388.07364    2148.3554 
  407000    308.27981   -10209.434            0   -10151.375   -1178.3861    32.696226    33.589734     33.45262    2.2777354    389.33432    2147.0456 
  408000    292.45465   -10208.866            0   -10153.788   -299.61605    32.696226    33.589734     33.45262    1.9496359     390.6131    2145.8356 
  409000    299.16604   -10212.585            0   -10156.243   -1954.2045    32.696226    33.589734     33.45262    2.2333522    391.86361    2144.4704 
  410000    297.00688   -10211.833            0   -10155.897   -1076.7064    32.696226    33.589734     33.45262    2.7794168      393.127    2143.1762 
  411000    301.09063   -10209.416            0   -10152.711   -1138.5047    32.696226    33.589734     33.45262    2.2068711    394.38147    2141.8338 
  412000    293.25694   -10211.611            0   -10156.382   -2102.0639    32.696226    33.589734     33.45262    2.4311238     395.5981    2140.2872 
  413000    304.03435   -10212.521            0   -10155.262   -2232.8243    32.696226    33.589734     33.45262     2.293183    396.80151    2138.6714 
  414000    302.69549   -10210.873            0   -10153.866    -1791.603    32.696226    33.589734     33.45262    2.7374269     398.0418    2137.2563 
  415000     299.7499   -10210.378            0   -10153.925   -2550.7248    32.696226    33.589734     33.45262    2.0889696     399.2694    2135.7744 
  416000    290.35296   -10212.069            0   -10157.386   -1839.7964    32.696226    33.589734     33.45262    2.6882987    400.45937    2134.0936 
  417000    305.75452   -10210.752            0   -10153.169   -1014.9751    32.696226    33.589734     33.45262    1.9937175    401.71705    2132.7754 
  418000     294.5846   -10209.972            0   -10154.493   -2389.9337    32.696226    33.589734     33.45262    1.9188516    403.00282    2131.6061 
  419000    297.08205   -10213.531            0   -10157.581   -1618.9316    32.696226    33.589734     33.45262    2.3080468    404.24918    2130.2284 
  420000    292.60286   -10211.028            0   -10155.922   -2080.6228    32.696226    33.589734     33.45262    1.9143492    405.45688    2128.6486 
  421000    300.76375   -10209.608            0   -10152.964   -1318.7389    32.696226    33.589734     33.45262    3.2173289    406.69084    2127.2085 
  422000    301.07794   -10212.962            0   -10156.259   -1429.9061    32.696226    33.589734     33.45262    2.6437704    407.95435    2125.9236 
  423000    295.04567    -10211.32            0   -10155.754   -2036.7346    32.696226    33.589734     33.45262    2.8777676     409.2019     2124.556 
  424000    297.83094   -10210.459            0   -10154.368   -653.71793    32.696226    33.589734     33.45262     2.169772    410.44644    2123.1736 
  425000    298.55839    -10211.44            0   -10155.212    -23.73705    32.696226    33.589734     33.45262    2.0377264    411.66286    2121.6471 
  426000    306.38341   -10211.919            0   -10154.217   -2563.6384    32.696226    33.589734     33.45262    2.4970677    412.87093    2120.0795 
  427000    307.62465   -10209.899            0   -10151.963   -1408.0943    32.696226    33.589734     33.45262    3.3504197    414.13386     2118.795 
  428000    307.66982   -10214.338            0   -10156.394   -1051.0739    32.696226    33.589734     33.45262     2.472331    415.47872    2117.9281 
  429000    303.64311   -10210.967            0   -10153.782   -1896.7513    32.696226    33.589734     33.45262    2.4346336    416.77573    2116.8154 
  430000    293.06185   -10208.362            0   -10153.169   -1894.9352    32.696226    33.589734     33.45262    3.2558319    418.00295    2115.3483 
  431000    296.97336   -10210.802            0   -10154.872   -1637.4258    32.696226    33.589734     33.45262    3.6936504    419.26376     2114.052 
  432000    299.34906   -10209.832            0   -10153.455   -2365.0364    32.696226    33.589734     33.45262    2.8486355    420.52477     2112.757 
  433000    292.82513   -10207.107            0   -10151.958   -2027.1985    32.696226    33.589734     33.45262    2.6768365    421.81403    2111.6036 
  434000    303.56298   -10212.597            0   -10155.426   -1432.3879    32.696226    33.589734     33.45262    1.9482843    423.11138    2110.4897 
  435000    300.26996   -10210.653            0   -10154.102   -2201.2474    32.696226    33.589734     33.45262     2.061039    424.45089    2109.5843 
  436000    310.54695   -10207.889            0   -10149.403   -810.83492    32.696226    33.589734     33.45262    2.5706458    425.77965     2108.623 
  437000    307.14084   -10211.324            0   -10153.479   -1409.4732    32.696226    33.589734     33.45262    3.0569627    427.07402    2107.4899 
  438000    301.55376   -10212.328            0   -10155.536   -1597.3175    32.696226    33.589734     33.45262    2.5557602     428.4137    2106.5786 
  439000    299.89168   -10208.719            0    -10152.24   -1927.8621    32.696226    33.589734     33.45262    2.3339892    429.75405    2105.6681 
  440000    305.11728   -10210.492            0   -10153.029   -1172.6307    32.696226    33.589734     33.45262    2.2371328     430.9945    2104.2673 
  441000    293.70948   -10210.138            0   -10154.823    -1933.521    32.696226    33.589734     33.45262    2.1526612    432.23799    2102.8822 
  442000    292.46586   -10209.788            0   -10154.708   -1320.3593    32.696226    33.589734     33.45262    2.5425247    433.48572    2101.5185 
  443000    311.02756   -10210.641            0   -10152.065   -756.78612    32.696226    33.589734     33.45262    2.5588165    434.70089    2099.9982 
  444000    291.07913   -10210.131            0   -10155.311   -2180.5818    32.696226    33.589734     33.45262    2.4955825    435.95466    2098.6655 
  445000    303.21229   -10212.496            0   -10155.392   -1973.8852    32.696226    33.589734     33.45262    2.3183143     437.1788    2097.1911 
  446000    311.06012   -10210.234            0   -10151.651   -1201.3229    32.696226    33.589734     33.45262    2.5083836    438.39683    2095.6889 
  447000    319.35181   -10209.683            0   -10149.539   -645.07413    32.696226    33.589734     33.45262    2.2772484     439.6143    2094.1857 
  448000     299.3752   -10210.997            0   -10154.615   -1500.5007    32.696226    33.589734     33.45262    2.7434576    440.81213    2092.5909 
  449000    301.23996   -10212.388            0   -10155.655   -1813.9421    32.696226    33.589734     33.45262    2.5673571    442.05953    2091.2329 
  450000    305.74334   -10208.903            0   -10151.322   -1862.9274    32.696226    33.589734     33.45262    2.4601886    443.31347    2089.9064 
  451000    299.73626   -10210.808            0   -10154.358   -2306.3753    32.696226    33.589734     33.45262    2.6873025    444.56772    2088.5817 
  452000    310.31698   -10213.738            0   -10155.296   -2046.6193    32.696226    33.589734     33.45262    2.3746234     445.9171    2087.7028 
  453000    292.27896   -10209.894            0   -10154.848   -795.51111    32.696226    33.589734     33.45262    2.1428476    447.29365     2086.948 
  454000    303.04187   -10210.005            0   -10152.933   -529.34494    32.696226    33.589734     33.45262    2.2905666    448.60589    2085.8906 
  455000    286.55534   -10210.898            0    -10156.93   -1503.5663    32.696226    33.589734     33.45262    2.2440209    449.85877    2084.5569 
  456000    298.58327    -10211.49            0   -10155.258   -1648.6801    32.696226    33.589734     33.45262    2.3867818    451.12386    2083.2799 
  457000    304.30127   -10211.575            0   -10154.266   -1682.6023    32.696226    33.589734     33.45262    2.3285442    452.39505     2082.031 
  458000    294.40547    -10210.52            0   -10155.074   -1402.5526    32.696226    33.589734     33.45262    2.1098539    453.67129    2080.8052 
  459000    295.49578   -10213.391            0    -10157.74   -1588.3686    32.696226    33.589734     33.45262      2.22335    454.88944    2079.3136 
  460000    296.90363   -10209.765            0   -10153.848   -2210.1823    32.696226    33.589734     33.45262    2.0465175    456.12384    2077.8975 
  461000    295.95672   -10210.119            0   -10154.381   -480.76335    32.696226    33.589734     33.45262    2.7585436    457.35673    2076.4756 
  462000    293.68819   -10214.047            0   -10158.736   -838.37157    32.696226    33.589734     33.45262     2.522387    458.60885    2075.1417 
  463000    285.84145   -10210.864            0   -10157.031   -2521.9301    32.696226    33.589734     33.45262    2.4670861    459.83775    2073.7036 
  464000    303.26349   -10210.153            0   -10153.039   -503.55529    32.696226    33.589734     33.45262    2.2945602    461.11023    2072.4625 
  465000    290.37796   -10209.446            0   -10154.758   -2091.9088    32.696226    33.589734     33.45262    2.7052189    462.39479    2071.2753 
  466000    292.99044   -10211.998            0   -10156.819   -1736.6516    32.696226    33.589734     33.45262      2.28901    463.72583    2070.2951 
  467000    304.64576   -10210.121            0   -10152.746   -563.26634    32.696226    33.589734     33.45262    2.5879819    465.05144    2069.2888 
  468000    298.82047   -10211.767            0    -10155.49   -1034.3609    32.696226    33.589734     33.45262     2.695778    466.39395    2068.3558 
  469000    297.08072   -10212.201            0   -10156.251   -1278.3498    32.696226    33.589734     33.45262    2.3642708    467.70112    2067.2643 
  470000    312.04005   -10211.114            0   -10152.347   -1328.2686    32.696226    33.589734     33.45262    2.4133935    468.99602    2066.1176 
  471000    299.26009   -10211.762            0   -10155.402   -2202.8482    32.696226    33.589734     33.45262    2.4204493    470.29958    2065.0081 
  472000      299.004   -10211.677            0   -10155.365   -1654.8891    32.696226    33.589734     33.45262    2.1825146    471.54148    2063.6278 
  473000    306.62035   -10211.856            0   -10154.109   -871.60219    32.696226    33.589734     33.45262    2.1445765    472.73418    2062.0336 
  474000    314.63032    -10213.31            0   -10154.055   -939.79468    32.696226    33.589734     33.45262    2.0298392    473.94535    2060.5218 
  475000    291.13612   -10210.902            0   -10156.072   -1239.4473    32.696226    33.589734     33.45262     2.371721    475.18546     2059.137 
[...]
 1979000    306.74265   -10218.282            0   -10160.513   -902.69787    32.696226    33.589734     33.45262    2.2196349    2380.6132    153.30186 
 1980000    298.11846   -10219.863            0   -10163.717   -1356.5246    32.696226    33.589734     33.45262    2.7643859    2381.8475    152.03282 
 1981000    297.96517   -10216.487            0   -10160.371   -1982.2384    32.696226    33.589734     33.45262    2.2679203    2383.1599    150.76876 
 1982000    306.05339   -10216.042            0   -10158.402   -1922.2305    32.696226    33.589734     33.45262    2.3374259    2384.5021    149.50651 
 1983000    300.11897   -10218.448            0   -10161.926   -1831.3669    32.696226    33.589734     33.45262    2.4766145    2385.8629    148.24533 
 1984000    299.06818    -10216.89            0   -10160.566   -1646.3024    32.696226    33.589734     33.45262    2.3872887     2387.188    146.98185 
 1985000    303.66474   -10216.118            0   -10158.928    -545.5741    32.696226    33.589734     33.45262    2.3516173     2388.525    145.71903 
 1986000     294.4862   -10215.621            0   -10160.159   -2137.8696    32.696226    33.589734     33.45262     2.302902    2389.8432      144.455 
 1987000    290.52843   -10218.803            0   -10164.087   -2315.0406    32.696226    33.589734     33.45262    2.5449469     2391.201    143.19328 
 1988000    303.07857    -10217.38            0   -10160.301   -2042.2098    32.696226    33.589734     33.45262    2.0239692    2392.5407    141.93038 
 1989000    299.32527   -10216.364            0   -10159.991    -1626.758    32.696226    33.589734     33.45262    2.3899453    2393.7619    140.66044 
 1990000    292.52993    -10219.12            0   -10164.027   -2134.5812    32.696226    33.589734     33.45262    2.2724972     2394.993    139.39112 
 1991000    293.16792   -10215.341            0   -10160.128   -939.73278    32.696226    33.589734     33.45262    2.5892339    2396.2046    138.12073 
 1992000    300.31455   -10215.963            0   -10159.405   -1448.3149    32.696226    33.589734     33.45262    2.3355951    2397.4006     136.8495 
 1993000    300.77358   -10219.098            0   -10162.453   -1527.7081    32.696226    33.589734     33.45262    2.3296597    2398.6395    135.58079 
 1994000    311.09652   -10218.286            0   -10159.697   -2522.5157    32.696226    33.589734     33.45262    2.9424317    2399.8482    134.31041 
 1995000    304.84345   -10216.739            0   -10159.327   -1750.6342    32.696226    33.589734     33.45262    2.2570561    2401.1031    133.04265 
 1996000    296.80451   -10218.474            0   -10162.576    -1869.258    32.696226    33.589734     33.45262    2.6925385    2402.3901    131.77667 
 1997000     308.8724    -10216.27            0     -10158.1    -2783.719    32.696226    33.589734     33.45262    2.2303068    2403.6326    130.50825 
 1998000    305.66159   -10216.717            0   -10159.151   -2162.8385    32.696226    33.589734     33.45262    2.0834958    2404.8963      129.241 
 1999000    299.96734   -10217.987            0   -10161.494    -509.7713    32.696226    33.589734     33.45262    2.3735724    2406.1809    127.97487 
 2000000    301.51316    -10215.99            0   -10159.205   -2519.7781    32.696226    33.589734     33.45262    2.4236795    2407.4214    126.70639 
 2001000    311.98595   -10213.832            0   -10155.075   -747.54471    32.696226    33.589734     33.45262    2.4153275    2408.6938    125.43961 
 2002000    299.85874   -10216.481            0   -10160.008   -3000.1616    32.696226    33.589734     33.45262    2.3816002    2409.9935    124.17422 
 2003000    311.00505   -10219.687            0   -10161.115   -1524.8368    32.696226    33.589734     33.45262    2.3059209    2411.2311    122.90563 
 2004000    306.87623   -10214.787            0   -10156.992   -750.63221    32.696226    33.589734     33.45262    2.2763642    2412.4871    121.63801 
 2005000    295.27101    -10215.86            0   -10160.251   -1953.5886    32.696226    33.589734     33.45262    2.3502025    2413.7482    120.37065 
 2006000    304.47435   -10218.085            0   -10160.743   -1521.8381    32.696226    33.589734     33.45262     2.347763    2415.0151    119.10358 
 2007000     307.0349   -10216.888            0   -10159.063   -2394.9054    32.696226    33.589734     33.45262    2.9496909    2416.2431    117.83461 
 2008000    299.00106   -10214.864            0   -10158.553    -2180.982    32.696226    33.589734     33.45262    2.3213893    2417.5088    116.56751 
 2009000    293.43045   -10217.205            0   -10161.942   -1545.1389    32.696226    33.589734     33.45262     2.417939    2418.7185    115.29774 
 2010000    301.13335   -10215.993            0    -10159.28   -1218.3597    32.696226    33.589734     33.45262    2.3097459    2419.9557    114.02932 
 2011000    315.90299   -10213.854            0    -10154.36   -1308.7049    32.696226    33.589734     33.45262    2.9002877    2421.2396    112.76312 
 2012000    306.26114    -10217.59            0   -10159.911   -2179.2723    32.696226    33.589734     33.45262    2.2811415    2422.5854    111.49974 
 2013000     296.3968    -10217.37            0   -10161.549   -2140.1731    32.696226    33.589734     33.45262    2.5357197    2423.9915    110.23903 
 2014000    300.69314   -10215.221            0    -10158.59   -2393.2227    32.696226    33.589734     33.45262    3.0848605    2425.4214    108.97923 
 2015000    304.39412   -10217.372            0   -10160.045   -1023.8918    32.696226    33.589734     33.45262    3.4710716    2426.7649    107.71541 
 2016000    298.87504   -10217.985            0   -10161.697   -1436.1273    32.696226    33.589734     33.45262      2.45562    2428.0849    106.45049 
 2017000    303.42688   -10215.793            0   -10158.648   -1595.0906    32.696226    33.589734     33.45262    2.1241739    2429.4176    105.18605 
 2018000    292.53873   -10218.032            0   -10162.937    -2210.436    32.696226    33.589734     33.45262     2.327493    2430.6605    103.91771 
 2019000    299.59102   -10217.253            0   -10160.831   -1944.2322    32.696226    33.589734     33.45262    2.2808222    2431.8564     102.6474 
 2020000    305.51208   -10216.932            0   -10159.394   -1629.8034    32.696226    33.589734     33.45262    2.3404135    2433.0974    101.37906 
 2021000    295.77222   -10218.416            0   -10162.713   -767.31505    32.696226    33.589734     33.45262    2.4137756    2434.3856    100.11268 
 2022000    289.04407   -10216.631            0   -10162.195   -2325.3906    32.696226    33.589734     33.45262    1.8442354    2435.6483    98.845249 
 2023000    297.16338   -10215.628            0   -10159.662   -883.83788    32.696226    33.589734     33.45262    2.4050936    2436.8917    97.577046 
 2024000    298.88515   -10216.633            0   -10160.343   -1638.0264    32.696226    33.589734     33.45262    2.6123203     2438.084    96.306852 
 2025000    291.22182   -10217.863            0   -10163.017   -2210.6501    32.696226    33.589734     33.45262    2.3651052    2439.3381    95.039146 
 2026000    304.62185   -10216.178            0   -10158.808   -2707.6461    32.696226    33.589734     33.45262    2.2434878    2440.5947     93.77155 
 2027000    296.38758   -10216.068            0   -10160.249   -941.47749    32.696226    33.589734     33.45262     3.140832    2441.8413    92.503588 
 2028000    294.68666   -10218.423            0   -10162.925   -2552.2971    32.696226    33.589734     33.45262    2.2487771    2443.0512    91.234276 
 2029000    302.91522   -10214.977            0   -10157.928   -1991.2179    32.696226    33.589734     33.45262     2.376238    2444.3156    89.967035 
 2030000     295.9642   -10216.564            0   -10160.824   -1897.2889    32.696226    33.589734     33.45262    2.7235899    2445.5454    88.698537 
 2031000    308.25344   -10218.914            0    -10160.86   -2293.4434    32.696226    33.589734     33.45262     3.636534    2446.7655    87.429734 
 2032000    305.30685    -10215.25            0   -10157.751   -1245.4911    32.696226    33.589734     33.45262    2.2675908    2448.0048    86.161659 
 2033000    296.05401   -10217.092            0   -10161.336   -1309.8445    32.696226    33.589734     33.45262    2.2422702    2449.2759    84.894716 
 2034000     301.5125   -10216.211            0   -10159.426    -1802.467    32.696226    33.589734     33.45262    2.4209277    2450.5436    83.627653 
 2035000    308.83906   -10215.199            0   -10157.035   -1552.5046    32.696226    33.589734     33.45262    2.4172919    2451.7738    82.359328 
 2036000    290.57418   -10215.016            0   -10160.292   -1476.9342    32.696226    33.589734     33.45262    2.4191274    2452.9976    81.090831 
 2037000    289.94867   -10215.055            0   -10160.448   -2089.2632    32.696226    33.589734     33.45262    2.8928688    2454.2729    79.824053 
 2038000    312.65458   -10215.347            0   -10156.464   -1739.9082    32.696226    33.589734     33.45262    2.2635428    2455.6021    78.558993 
 2039000    306.64875   -10218.212            0    -10160.46   -1008.2034    32.696226    33.589734     33.45262    2.5459554    2456.9401    77.294145 
 2040000    304.01224   -10218.233            0   -10160.977   -2555.0186    32.696226    33.589734     33.45262    2.2713016     2458.174    76.025999 
 2041000    314.42017   -10215.959            0   -10156.744   -2988.0951    32.696226    33.589734     33.45262    3.0206357    2459.4249    74.758408 
 2042000    291.76827   -10215.188            0   -10160.238   -1383.8977    32.696226    33.589734     33.45262    2.2044454    2460.6666    73.490557 
 2043000    295.65273   -10216.056            0   -10160.375   -2391.7743    32.696226    33.589734     33.45262    2.5245147    2461.9625    72.224325 
 2044000    300.58847   -10214.906            0   -10158.296   -2048.3257    32.696226    33.589734     33.45262    2.2501536    2463.2555    70.957978 
 2045000    301.01447   -10215.701            0    -10159.01   -1801.8918    32.696226    33.589734     33.45262    2.0583281    2464.5637    69.692031 
 2046000    289.33746    -10215.88            0   -10161.388   -1977.4638    32.696226    33.589734     33.45262    2.6460371    2465.9056    68.426981 
 2047000     310.0612    -10216.18            0   -10157.786   -1537.0339    32.696226    33.589734     33.45262    2.2323836    2467.2325    67.161438 
 2048000    314.88546   -10212.875            0   -10153.572   -2228.4379    32.696226    33.589734     33.45262    2.6795454    2468.5476    65.895522 
 2049000    297.79463   -10216.046            0   -10159.962   -1629.6593    32.696226    33.589734     33.45262    3.0022758    2469.8328     64.62877 
 2050000    293.73283   -10217.019            0     -10161.7   -2609.8537    32.696226    33.589734     33.45262    2.5331847    2471.1031    63.361618 
 2051000     307.4869   -10215.902            0   -10157.993   -1491.7844    32.696226    33.589734     33.45262    2.6695299    2472.3357    62.093515 
 2052000    296.30085    -10216.03            0   -10160.227   -2443.3373    32.696226    33.589734     33.45262    2.8033953    2473.5894    60.825968 
 2053000     292.6441   -10216.672            0   -10161.558   -2869.2732    32.696226    33.589734     33.45262    2.5381471    2474.8069    59.557566 
 2054000    302.51775   -10215.293            0    -10158.32    -1746.634    32.696226    33.589734     33.45262    2.4749195    2476.0082    58.288831 
 2055000    308.25137   -10219.499            0   -10161.445   -2183.4354    32.696226    33.589734     33.45262    2.4902908    2477.3057    57.022381 
 2056000    293.86447   -10216.808            0   -10161.464   -1986.8135    32.696226    33.589734     33.45262    2.1858358     2478.568    55.755108 
 2057000    307.30346   -10217.374            0   -10159.499   -2515.4409    32.696226    33.589734     33.45262    2.4736245    2479.8035    54.487252 
 2058000    307.88262   -10217.788            0   -10159.804   -3016.1167    32.696226    33.589734     33.45262    2.4612491    2481.0381    53.219407 
 2059000    293.37475   -10217.956            0   -10162.704   -1420.7694    32.696226    33.589734     33.45262    2.0940935    2482.2771     51.95169 
 2060000    302.04881   -10216.051            0   -10159.166   -948.26404    32.696226    33.589734     33.45262     2.444074    2483.4616    50.682889 
 2061000    300.88545   -10215.999            0   -10159.333   -1558.7837    32.696226    33.589734     33.45262    3.4930526    2484.7322    49.415887 
 2062000    297.05048   -10218.849            0   -10162.905   -1467.1507    32.696226    33.589734     33.45262    2.4817113    2486.0633    48.150054 
 2063000    291.95108   -10219.221            0   -10164.238   -1646.0517    32.696226    33.589734     33.45262    2.1623388    2487.4399     46.88501 
 2064000    301.17018    -10216.91            0    -10160.19   -2261.8357    32.696226    33.589734     33.45262    2.5358561    2488.7047    45.617805 
 2065000    304.10227   -10215.613            0   -10158.341   -2205.4624    32.696226    33.589734     33.45262    2.3868264    2489.9819    44.350822 
 2066000    291.14761   -10217.399            0   -10162.567   -2015.9792    32.696226    33.589734     33.45262    2.5300292    2491.2061    43.082914 
 2067000    294.56008   -10215.557            0   -10160.082   -751.99928    32.696226    33.589734     33.45262    2.7536014    2492.4838    41.815945 
 2068000     300.8652   -10216.123            0   -10159.461   -1683.8935    32.696226    33.589734     33.45262    2.2863971    2493.7279    40.548421 
 2069000    292.99754   -10216.985            0   -10161.804   -2033.3385    32.696226    33.589734     33.45262    2.1536362    2494.9494    39.280564 
 2070000    296.63513   -10216.827            0   -10160.962   -2703.3226    32.696226    33.589734     33.45262    2.0780287    2496.2301    38.013656 
 2071000    298.53431   -10214.964            0   -10158.741   -1840.1784    32.696226    33.589734     33.45262    2.3954332    2497.4302    36.745549 
 2072000    291.66598    -10216.63            0     -10161.7   -1845.3488    32.696226    33.589734     33.45262    2.3403967    2498.7316    35.478948 
 2073000    286.83125   -10216.988            0   -10162.969   -1739.4582    32.696226    33.589734     33.45262    2.1591221    2499.9492    34.211165 
 2074000    305.53204   -10217.117            0   -10159.575    -2728.762    32.696226    33.589734     33.45262    2.1590646    2501.1958    32.943814 
 2075000    310.00745   -10217.267            0   -10158.883    -836.0573    32.696226    33.589734     33.45262    2.3714494    2502.5076    31.677311 
 2076000    299.19811   -10218.746            0   -10162.397   -1260.9068    32.696226    33.589734     33.45262    2.3822054    2503.8352    30.410954 
 2077000    307.84875   -10216.546            0   -10158.569   -1381.6754    32.696226    33.589734     33.45262    2.4926112    2505.1692    29.144609 
 2078000    303.69396   -10216.605            0    -10159.41   -2071.0473    32.696226    33.589734     33.45262    2.7189973    2506.5297     27.87849 
 2079000    301.12346   -10219.251            0   -10162.539   -1614.4474    32.696226    33.589734     33.45262    2.0171405     2507.857    26.611924 
 2080000    302.15744   -10217.176            0    -10160.27   -2080.2495    32.696226    33.589734     33.45262    2.5191403    2509.1856    25.345309 
 2081000    308.19977   -10216.579            0   -10158.535   -1402.5703    32.696226    33.589734     33.45262    2.2481724    2510.4431     24.07795 
 2082000    293.49661   -10217.674            0   -10162.399   -1589.1788    32.696226    33.589734     33.45262    2.6839453    2511.6501    22.810142 
 2083000    296.49506   -10216.582            0   -10160.742   -1781.0263    32.696226    33.589734     33.45262    2.3492798    2512.9014    21.542775 
 2084000    300.40921   -10216.736            0    -10160.16   -1584.5886    32.696226    33.589734     33.45262    2.7486338    2514.1698    20.275563 
 2085000    293.79037   -10216.793            0   -10161.463   -540.05378    32.696226    33.589734     33.45262    2.5660896    2515.4001    19.008061 
 2086000    299.57179   -10218.837            0   -10162.418   -1625.8635    32.696226    33.589734     33.45262    2.0333743     2516.698    17.741074 
 2087000    305.27387   -10216.626            0   -10159.133   -1854.6542    32.696226    33.589734     33.45262    2.0831606    2518.0631    16.474495 
 2088000    299.06211   -10217.868            0   -10161.545   -1666.0137    32.696226    33.589734     33.45262     2.273775    2519.3757    15.207499 
 2089000    288.56133   -10219.669            0   -10165.324   -1881.6882    32.696226    33.589734     33.45262    2.7690376     2520.622    13.940092 
 2090000    304.81975   -10217.118            0   -10159.711   -1697.8523    32.696226    33.589734     33.45262    2.5435505    2521.8466    12.672596 
 2091000    311.28972   -10217.442            0   -10158.817   -2381.6858    32.696226    33.589734     33.45262    2.3062146    2523.1244    11.405384 
 2092000    298.36836   -10218.514            0   -10162.322   -1139.3505    32.696226    33.589734     33.45262    2.8079587    2524.2964    10.137736 
 2093000    308.27645   -10216.646            0   -10158.587   -1945.8746    32.696226    33.589734     33.45262    2.2586756    2525.5177    8.8703582 
 2094000    306.02556   -10217.174            0    -10159.54   -1548.0102    32.696226    33.589734     33.45262    2.4693059    2526.7274     7.602991 
 2095000    290.29783   -10216.561            0   -10161.889   -2097.4388    32.696226    33.589734     33.45262    2.2554046    2527.9258    6.3356535 
 2096000    305.94528   -10214.445            0   -10156.825   -629.26742    32.696226    33.589734     33.45262    2.4613099    2529.2317    5.0686007 
 2097000    299.50084   -10216.009            0   -10159.603   -1076.1028    32.696226    33.589734     33.45262    2.2096281     2530.534    3.8015033 
 2098000    303.66884    -10218.79            0     -10161.6   -1503.2309    32.696226    33.589734     33.45262    2.2485089    2531.7607     2.534295 
 2099000    307.57635   -10215.269            0   -10157.343    -1207.949    32.696226    33.589734     33.45262    2.4269226    2533.0536    1.2671604 
 2100000    299.46768   -10215.631            0   -10159.232   -1546.7828    32.696226    33.589734     33.45262    2.7590093    2534.3378            0 
Loop time of 2534.34 on 80 procs for 2000000 steps with 1458 atoms

Performance: 68.183 ns/day, 0.352 hours/ns, 789.161 timesteps/s
99.3% CPU use with 80 MPI tasks x 1 OpenMP threads

MPI task timing breakdown:
Section |  min time  |  avg time  |  max time  |%varavg| %total
---------------------------------------------------------------
Pair    | 205.64     | 250.75     | 291.71     | 130.0 |  9.89
Kspace  | 1178.8     | 1236.4     | 1286.8     |  73.7 | 48.78
Neigh   | 4.8699     | 5.8031     | 7.0021     |  18.3 |  0.23
Comm    | 977.02     | 1007       | 1059       |  60.4 | 39.73
Output  | 1.7957     | 1.7968     | 1.8018     |   0.1 |  0.07
Modify  | 18.33      | 20.806     | 23.525     |  22.1 |  0.82
Other   |            | 11.86      |            |       |  0.47

Nlocal:    18.225 ave 24 max 13 min
Histogram: 5 9 11 9 8 10 11 7 6 4
Nghost:    1794.75 ave 1817 max 1763 min
Histogram: 3 3 7 3 8 17 11 12 7 9
Neighs:    4149.8 ave 5478 max 2884 min
Histogram: 3 5 15 8 11 12 11 6 6 3

Total # of neighbors = 331984
Ave neighs/atom = 227.698
Neighbor list builds = 32971
Dangerous builds = 0

# Final Commands
variable final_energy equal etotal
print "final_energy: ${final_energy}"
final_energy: -10159.2319225207
print "END_OF_COMP"
END_OF_COMP
Total wall time: 0:44:30
