  54  54   1   0
  0.2017579E+02  0.1032217E-08  0.1026615E-08  0.1028254E-08  0.5000000E-15
   1.0000000000000000E-004
  CAR 
 unknown system                          
     11.26589472    -50.86862424  301      0.72891588      1.00000000
    -50.869  0.0000E+00  0.0000E+00
    -50.662  0.0000E+00  0.0000E+00
    -50.454  0.0000E+00  0.0000E+00
    -50.247  0.0000E+00  0.0000E+00
    -50.040  0.0000E+00  0.0000E+00
    -49.833  0.0000E+00  0.0000E+00
    -49.626  0.0000E+00  0.0000E+00
    -49.419  0.0000E+00  0.0000E+00
    -49.212  0.0000E+00  0.0000E+00
    -49.005  0.0000E+00  0.0000E+00
    -48.797  0.0000E+00  0.0000E+00
    -48.590  0.0000E+00  0.0000E+00
    -48.383  0.0000E+00  0.0000E+00
    -48.176  0.2361E-05  0.4890E-06
    -47.969  0.4923E-01  0.1020E-01
    -47.762  0.6226E-01  0.2309E-01
    -47.555  0.9214E-02  0.2500E-01
    -47.348  0.0000E+00  0.2500E-01
    -47.141  0.0000E+00  0.2500E-01
    -46.933  0.0000E+00  0.2500E-01
    -46.726  0.0000E+00  0.2500E-01
    -46.519  0.0000E+00  0.2500E-01
    -46.312  0.0000E+00  0.2500E-01
    -46.105  0.0000E+00  0.2500E-01
    -45.898  0.0000E+00  0.2500E-01
    -45.691  0.0000E+00  0.2500E-01
    -45.484  0.0000E+00  0.2500E-01
    -45.277  0.0000E+00  0.2500E-01
    -45.069  0.0000E+00  0.2500E-01
    -44.862  0.0000E+00  0.2500E-01
    -44.655  0.0000E+00  0.2500E-01
    -44.448  0.0000E+00  0.2500E-01
    -44.241  0.0000E+00  0.2500E-01
    -44.034  0.0000E+00  0.2500E-01
    -43.827  0.2814E-16  0.2500E-01
    -43.620  0.4733E-03  0.2510E-01
    -43.412  0.2367E-01  0.3000E-01
    -43.205  0.1774E-05  0.3000E-01
    -42.998  0.1358E-14  0.3000E-01
    -42.791  0.2186E-02  0.3045E-01
    -42.584  0.1490E+00  0.6131E-01
    -42.377  0.2057E+00  0.1039E+00
    -42.170  0.2942E-01  0.1100E+00
    -41.963  0.1226E-04  0.1100E+00
    -41.756  0.0000E+00  0.1100E+00
    -41.548  0.0000E+00  0.1100E+00
    -41.341  0.0000E+00  0.1100E+00
    -41.134  0.0000E+00  0.1100E+00
    -40.927  0.0000E+00  0.1100E+00
    -40.720  0.0000E+00  0.1100E+00
    -40.513  0.0000E+00  0.1100E+00
    -40.306  0.0000E+00  0.1100E+00
    -40.099  0.0000E+00  0.1100E+00
    -39.892  0.0000E+00  0.1100E+00
    -39.684  0.0000E+00  0.1100E+00
    -39.477  0.0000E+00  0.1100E+00
    -39.270  0.0000E+00  0.1100E+00
    -39.063  0.0000E+00  0.1100E+00
    -38.856  0.0000E+00  0.1100E+00
    -38.649  0.0000E+00  0.1100E+00
    -38.442  0.0000E+00  0.1100E+00
    -38.235  0.0000E+00  0.1100E+00
    -38.027  0.0000E+00  0.1100E+00
    -37.820  0.0000E+00  0.1100E+00
    -37.613  0.0000E+00  0.1100E+00
    -37.406  0.0000E+00  0.1100E+00
    -37.199  0.0000E+00  0.1100E+00
    -36.992  0.0000E+00  0.1100E+00
    -36.785  0.0000E+00  0.1100E+00
    -36.578  0.0000E+00  0.1100E+00
    -36.371  0.0000E+00  0.1100E+00
    -36.163  0.0000E+00  0.1100E+00
    -35.956  0.0000E+00  0.1100E+00
    -35.749  0.0000E+00  0.1100E+00
    -35.542  0.0000E+00  0.1100E+00
    -35.335  0.0000E+00  0.1100E+00
    -35.128  0.0000E+00  0.1100E+00
    -34.921  0.0000E+00  0.1100E+00
    -34.714  0.0000E+00  0.1100E+00
    -34.507  0.0000E+00  0.1100E+00
    -34.299  0.0000E+00  0.1100E+00
    -34.092  0.0000E+00  0.1100E+00
    -33.885  0.0000E+00  0.1100E+00
    -33.678  0.0000E+00  0.1100E+00
    -33.471  0.0000E+00  0.1100E+00
    -33.264  0.0000E+00  0.1100E+00
    -33.057  0.0000E+00  0.1100E+00
    -32.850  0.0000E+00  0.1100E+00
    -32.642  0.0000E+00  0.1100E+00
    -32.435  0.0000E+00  0.1100E+00
    -32.228  0.0000E+00  0.1100E+00
    -32.021  0.0000E+00  0.1100E+00
    -31.814  0.0000E+00  0.1100E+00
    -31.607  0.0000E+00  0.1100E+00
    -31.400  0.0000E+00  0.1100E+00
    -31.193  0.0000E+00  0.1100E+00
    -30.986  0.0000E+00  0.1100E+00
    -30.778  0.0000E+00  0.1100E+00
    -30.571  0.0000E+00  0.1100E+00
    -30.364  0.0000E+00  0.1100E+00
    -30.157  0.0000E+00  0.1100E+00
    -29.950  0.0000E+00  0.1100E+00
    -29.743  0.0000E+00  0.1100E+00
    -29.536  0.0000E+00  0.1100E+00
    -29.329  0.0000E+00  0.1100E+00
    -29.122  0.0000E+00  0.1100E+00
    -28.914  0.0000E+00  0.1100E+00
    -28.707  0.0000E+00  0.1100E+00
    -28.500  0.0000E+00  0.1100E+00
    -28.293  0.0000E+00  0.1100E+00
    -28.086  0.0000E+00  0.1100E+00
    -27.879  0.0000E+00  0.1100E+00
    -27.672  0.0000E+00  0.1100E+00
    -27.465  0.0000E+00  0.1100E+00
    -27.258  0.0000E+00  0.1100E+00
    -27.050  0.5796E-15  0.1100E+00
    -26.843  0.1620E-02  0.1103E+00
    -26.636  0.1977E+00  0.1513E+00
    -26.429  0.1556E+00  0.1835E+00
    -26.222  0.7178E-02  0.1850E+00
    -26.015  0.0000E+00  0.1850E+00
    -25.808  0.0000E+00  0.1850E+00
    -25.601  0.0000E+00  0.1850E+00
    -25.393  0.0000E+00  0.1850E+00
    -25.186  0.0000E+00  0.1850E+00
    -24.979  0.0000E+00  0.1850E+00
    -24.772  0.0000E+00  0.1850E+00
    -24.565  0.0000E+00  0.1850E+00
    -24.358  0.0000E+00  0.1850E+00
    -24.151  0.0000E+00  0.1850E+00
    -23.944  0.0000E+00  0.1850E+00
    -23.737  0.0000E+00  0.1850E+00
    -23.529  0.0000E+00  0.1850E+00
    -23.322  0.0000E+00  0.1850E+00
    -23.115  0.0000E+00  0.1850E+00
    -22.908  0.0000E+00  0.1850E+00
    -22.701  0.0000E+00  0.1850E+00
    -22.494  0.0000E+00  0.1850E+00
    -22.287  0.0000E+00  0.1850E+00
    -22.080  0.0000E+00  0.1850E+00
    -21.873  0.0000E+00  0.1850E+00
    -21.665  0.0000E+00  0.1850E+00
    -21.458  0.0000E+00  0.1850E+00
    -21.251  0.0000E+00  0.1850E+00
    -21.044  0.0000E+00  0.1850E+00
    -20.837  0.0000E+00  0.1850E+00
    -20.630  0.0000E+00  0.1850E+00
    -20.423  0.0000E+00  0.1850E+00
    -20.216  0.0000E+00  0.1850E+00
    -20.008  0.0000E+00  0.1850E+00
    -19.801  0.0000E+00  0.1850E+00
    -19.594  0.0000E+00  0.1850E+00
    -19.387  0.0000E+00  0.1850E+00
    -19.180  0.0000E+00  0.1850E+00
    -18.973  0.0000E+00  0.1850E+00
    -18.766  0.0000E+00  0.1850E+00
    -18.559  0.0000E+00  0.1850E+00
    -18.352  0.0000E+00  0.1850E+00
    -18.144  0.0000E+00  0.1850E+00
    -17.937  0.0000E+00  0.1850E+00
    -17.730  0.0000E+00  0.1850E+00
    -17.523  0.0000E+00  0.1850E+00
    -17.316  0.0000E+00  0.1850E+00
    -17.109  0.0000E+00  0.1850E+00
    -16.902  0.0000E+00  0.1850E+00
    -16.695  0.0000E+00  0.1850E+00
    -16.488  0.0000E+00  0.1850E+00
    -16.280  0.0000E+00  0.1850E+00
    -16.073  0.0000E+00  0.1850E+00
    -15.866  0.0000E+00  0.1850E+00
    -15.659  0.0000E+00  0.1850E+00
    -15.452  0.0000E+00  0.1850E+00
    -15.245  0.0000E+00  0.1850E+00
    -15.038  0.0000E+00  0.1850E+00
    -14.831  0.0000E+00  0.1850E+00
    -14.623  0.0000E+00  0.1850E+00
    -14.416  0.0000E+00  0.1850E+00
    -14.209  0.0000E+00  0.1850E+00
    -14.002  0.0000E+00  0.1850E+00
    -13.795  0.5061E-07  0.1850E+00
    -13.588  0.2166E-01  0.1895E+00
    -13.381  0.2685E-01  0.1950E+00
    -13.174  0.9649E-01  0.2150E+00
    -12.967  0.1250E+00  0.2409E+00
    -12.759  0.1949E+00  0.2813E+00
    -12.552  0.1070E+00  0.3034E+00
    -12.345  0.8587E-01  0.3212E+00
    -12.138  0.6587E-01  0.3349E+00
    -11.931  0.2475E-01  0.3400E+00
    -11.724  0.2402E-01  0.3450E+00
    -11.517  0.1032E-03  0.3450E+00
    -11.310  0.0000E+00  0.3450E+00
    -11.103  0.0000E+00  0.3450E+00
    -10.895  0.0000E+00  0.3450E+00
    -10.688  0.0000E+00  0.3450E+00
    -10.481  0.0000E+00  0.3450E+00
    -10.274  0.0000E+00  0.3450E+00
    -10.067  0.0000E+00  0.3450E+00
     -9.860  0.0000E+00  0.3450E+00
     -9.653  0.0000E+00  0.3450E+00
     -9.446  0.0000E+00  0.3450E+00
     -9.238  0.0000E+00  0.3450E+00
     -9.031  0.0000E+00  0.3450E+00
     -8.824  0.0000E+00  0.3450E+00
     -8.617  0.0000E+00  0.3450E+00
     -8.410  0.0000E+00  0.3450E+00
     -8.203  0.0000E+00  0.3450E+00
     -7.996  0.0000E+00  0.3450E+00
     -7.789  0.0000E+00  0.3450E+00
     -7.582  0.0000E+00  0.3450E+00
     -7.374  0.0000E+00  0.3450E+00
     -7.167  0.0000E+00  0.3450E+00
     -6.960  0.0000E+00  0.3450E+00
     -6.753  0.0000E+00  0.3450E+00
     -6.546  0.0000E+00  0.3450E+00
     -6.339  0.0000E+00  0.3450E+00
     -6.132  0.0000E+00  0.3450E+00
     -5.925  0.0000E+00  0.3450E+00
     -5.718  0.0000E+00  0.3450E+00
     -5.510  0.0000E+00  0.3450E+00
     -5.303  0.0000E+00  0.3450E+00
     -5.096  0.0000E+00  0.3450E+00
     -4.889  0.0000E+00  0.3450E+00
     -4.682  0.0000E+00  0.3450E+00
     -4.475  0.0000E+00  0.3450E+00
     -4.268  0.0000E+00  0.3450E+00
     -4.061  0.0000E+00  0.3450E+00
     -3.854  0.0000E+00  0.3450E+00
     -3.646  0.0000E+00  0.3450E+00
     -3.439  0.5373E-11  0.3450E+00
     -3.232  0.1456E-02  0.3453E+00
     -3.025  0.3631E-01  0.3528E+00
     -2.818  0.6083E-01  0.3654E+00
     -2.611  0.7969E-01  0.3819E+00
     -2.404  0.1884E+00  0.4209E+00
     -2.197  0.1602E+00  0.4541E+00
     -1.989  0.1381E+00  0.4827E+00
     -1.782  0.1445E+00  0.5127E+00
     -1.575  0.1229E+00  0.5381E+00
     -1.368  0.1167E+00  0.5623E+00
     -1.161  0.1477E+00  0.5929E+00
     -0.954  0.1721E+00  0.6285E+00
     -0.747  0.1756E+00  0.6649E+00
     -0.540  0.1583E+00  0.6977E+00
     -0.333  0.1773E+00  0.7344E+00
     -0.125  0.1810E+00  0.7719E+00
      0.082  0.1413E+00  0.8012E+00
      0.289  0.9210E-01  0.8203E+00
      0.496  0.2290E-01  0.8250E+00
      0.703  0.5411E-05  0.8250E+00
      0.910  0.0000E+00  0.8250E+00
      1.117  0.0000E+00  0.8250E+00
      1.324  0.0000E+00  0.8250E+00
      1.531  0.0000E+00  0.8250E+00
      1.739  0.0000E+00  0.8250E+00
      1.946  0.0000E+00  0.8250E+00
      2.153  0.0000E+00  0.8250E+00
      2.360  0.0000E+00  0.8250E+00
      2.567  0.0000E+00  0.8250E+00
      2.774  0.0000E+00  0.8250E+00
      2.981  0.0000E+00  0.8250E+00
      3.188  0.0000E+00  0.8250E+00
      3.396  0.0000E+00  0.8250E+00
      3.603  0.3003E-04  0.8250E+00
      3.810  0.3852E-01  0.8330E+00
      4.017  0.9795E-01  0.8533E+00
      4.224  0.1584E+00  0.8861E+00
      4.431  0.6721E-01  0.9000E+00
      4.638  0.1018E-04  0.9000E+00
      4.845  0.1978E-05  0.9000E+00
      5.052  0.3027E-02  0.9006E+00
      5.260  0.1038E-01  0.9028E+00
      5.467  0.9294E-01  0.9220E+00
      5.674  0.7025E-01  0.9366E+00
      5.881  0.4932E-01  0.9468E+00
      6.088  0.1549E-01  0.9500E+00
      6.295  0.7665E-07  0.9500E+00
      6.502  0.2853E-02  0.9506E+00
      6.709  0.1650E-03  0.9506E+00
      6.916  0.6360E-10  0.9506E+00
      7.124  0.2606E-02  0.9512E+00
      7.331  0.1913E-01  0.9551E+00
      7.538  0.2702E-01  0.9607E+00
      7.745  0.4647E-01  0.9703E+00
      7.952  0.4672E-01  0.9800E+00
      8.159  0.7887E-01  0.9964E+00
      8.366  0.1449E-01  0.9994E+00
      8.573  0.3072E-02  0.1000E+01
      8.781  0.2913E-06  0.1000E+01
      8.988  0.0000E+00  0.1000E+01
      9.195  0.0000E+00  0.1000E+01
      9.402  0.0000E+00  0.1000E+01
      9.609  0.0000E+00  0.1000E+01
      9.816  0.0000E+00  0.1000E+01
     10.023  0.0000E+00  0.1000E+01
     10.230  0.0000E+00  0.1000E+01
     10.437  0.0000E+00  0.1000E+01
     10.645  0.0000E+00  0.1000E+01
     10.852  0.0000E+00  0.1000E+01
     11.059  0.0000E+00  0.1000E+01
     11.266  0.0000E+00  0.1000E+01
     11.26589472    -50.86862424  301      0.72891588      1.00000000
    -50.869  0.0000E+00  0.0000E+00  0.0000E+00  0.0000E+00  0.0000E+00  0.0000E+00  0.0000E+00  0.0000E+00  0.0000E+00
    -50.662  0.0000E+00  0.0000E+00  0.0000E+00  0.0000E+00  0.0000E+00  0.0000E+00  0.0000E+00  0.0000E+00  0.0000E+00
    -50.454  0.0000E+00  0.0000E+00  0.0000E+00  0.0000E+00  0.0000E+00  0.0000E+00  0.0000E+00  0.0000E+00  0.0000E+00
    -50.247  0.0000E+00  0.0000E+00  0.0000E+00  0.0000E+00  0.0000E+00  0.0000E+00  0.0000E+00  0.0000E+00  0.0000E+00
    -50.040  0.0000E+00  0.0000E+00  0.0000E+00  0.0000E+00  0.0000E+00  0.0000E+00  0.0000E+00  0.0000E+00  0.0000E+00
    -49.833  0.0000E+00  0.0000E+00  0.0000E+00  0.0000E+00  0.0000E+00  0.0000E+00  0.0000E+00  0.0000E+00  0.0000E+00
    -49.626  0.0000E+00  0.0000E+00  0.0000E+00  0.0000E+00  0.0000E+00  0.0000E+00  0.0000E+00  0.0000E+00  0.0000E+00
    -49.419  0.0000E+00  0.0000E+00  0.0000E+00  0.0000E+00  0.0000E+00  0.0000E+00  0.0000E+00  0.0000E+00  0.0000E+00
    -49.212  0.0000E+00  0.0000E+00  0.0000E+00  0.0000E+00  0.0000E+00  0.0000E+00  0.0000E+00  0.0000E+00  0.0000E+00
    -49.005  0.0000E+00  0.0000E+00  0.0000E+00  0.0000E+00  0.0000E+00  0.0000E+00  0.0000E+00  0.0000E+00  0.0000E+00
    -48.797  0.0000E+00  0.0000E+00  0.0000E+00  0.0000E+00  0.0000E+00  0.0000E+00  0.0000E+00  0.0000E+00  0.0000E+00
    -48.590  0.0000E+00  0.0000E+00  0.0000E+00  0.0000E+00  0.0000E+00  0.0000E+00  0.0000E+00  0.0000E+00  0.0000E+00
    -48.383  0.0000E+00  0.0000E+00  0.0000E+00  0.0000E+00  0.0000E+00  0.0000E+00  0.0000E+00  0.0000E+00  0.0000E+00
    -48.176  0.2774E-14  0.6574E-14  0.2930E-14  0.8848E-14  0.0000E+00  0.0000E+00  0.0000E+00  0.0000E+00  0.0000E+00
    -47.969  0.2296E-08  0.2184E-09  0.1183E-09  0.5352E-09  0.0000E+00  0.0000E+00  0.0000E+00  0.0000E+00  0.0000E+00
    -47.762  0.5668E-08  0.6112E-09  0.8853E-09  0.3928E-09  0.0000E+00  0.0000E+00  0.0000E+00  0.0000E+00  0.0000E+00
    -47.555  0.6462E-09  0.9359E-11  0.1960E-10  0.1993E-10  0.0000E+00  0.0000E+00  0.0000E+00  0.0000E+00  0.0000E+00
    -47.348  0.0000E+00  0.0000E+00  0.0000E+00  0.0000E+00  0.0000E+00  0.0000E+00  0.0000E+00  0.0000E+00  0.0000E+00
    -47.141  0.0000E+00  0.0000E+00  0.0000E+00  0.0000E+00  0.0000E+00  0.0000E+00  0.0000E+00  0.0000E+00  0.0000E+00
    -46.933  0.0000E+00  0.0000E+00  0.0000E+00  0.0000E+00  0.0000E+00  0.0000E+00  0.0000E+00  0.0000E+00  0.0000E+00
    -46.726  0.0000E+00  0.0000E+00  0.0000E+00  0.0000E+00  0.0000E+00  0.0000E+00  0.0000E+00  0.0000E+00  0.0000E+00
    -46.519  0.0000E+00  0.0000E+00  0.0000E+00  0.0000E+00  0.0000E+00  0.0000E+00  0.0000E+00  0.0000E+00  0.0000E+00
    -46.312  0.0000E+00  0.0000E+00  0.0000E+00  0.0000E+00  0.0000E+00  0.0000E+00  0.0000E+00  0.0000E+00  0.0000E+00
    -46.105  0.0000E+00  0.0000E+00  0.0000E+00  0.0000E+00  0.0000E+00  0.0000E+00  0.0000E+00  0.0000E+00  0.0000E+00
    -45.898  0.0000E+00  0.0000E+00  0.0000E+00  0.0000E+00  0.0000E+00  0.0000E+00  0.0000E+00  0.0000E+00  0.0000E+00
    -45.691  0.0000E+00  0.0000E+00  0.0000E+00  0.0000E+00  0.0000E+00  0.0000E+00  0.0000E+00  0.0000E+00  0.0000E+00
    -45.484  0.0000E+00  0.0000E+00  0.0000E+00  0.0000E+00  0.0000E+00  0.0000E+00  0.0000E+00  0.0000E+00  0.0000E+00
    -45.277  0.0000E+00  0.0000E+00  0.0000E+00  0.0000E+00  0.0000E+00  0.0000E+00  0.0000E+00  0.0000E+00  0.0000E+00
    -45.069  0.0000E+00  0.0000E+00  0.0000E+00  0.0000E+00  0.0000E+00  0.0000E+00  0.0000E+00  0.0000E+00  0.0000E+00
    -44.862  0.0000E+00  0.0000E+00  0.0000E+00  0.0000E+00  0.0000E+00  0.0000E+00  0.0000E+00  0.0000E+00  0.0000E+00
    -44.655  0.0000E+00  0.0000E+00  0.0000E+00  0.0000E+00  0.0000E+00  0.0000E+00  0.0000E+00  0.0000E+00  0.0000E+00
    -44.448  0.0000E+00  0.0000E+00  0.0000E+00  0.0000E+00  0.0000E+00  0.0000E+00  0.0000E+00  0.0000E+00  0.0000E+00
    -44.241  0.0000E+00  0.0000E+00  0.0000E+00  0.0000E+00  0.0000E+00  0.0000E+00  0.0000E+00  0.0000E+00  0.0000E+00
    -44.034  0.0000E+00  0.0000E+00  0.0000E+00  0.0000E+00  0.0000E+00  0.0000E+00  0.0000E+00  0.0000E+00  0.0000E+00
    -43.827  0.3172E-24  0.2630E-24  0.1220E-23  0.1167E-23  0.0000E+00  0.0000E+00  0.0000E+00  0.0000E+00  0.0000E+00
    -43.620  0.5336E-11  0.4422E-11  0.2051E-10  0.1963E-10  0.0000E+00  0.0000E+00  0.0000E+00  0.0000E+00  0.0000E+00
    -43.412  0.2668E-09  0.2212E-09  0.1026E-08  0.9814E-09  0.0000E+00  0.0000E+00  0.0000E+00  0.0000E+00  0.0000E+00
    -43.205  0.1999E-13  0.1659E-13  0.7691E-13  0.7357E-13  0.0000E+00  0.0000E+00  0.0000E+00  0.0000E+00  0.0000E+00
    -42.998  0.4966E-12  0.1772E-18  0.6388E-22  0.5934E-19  0.0000E+00  0.0000E+00  0.0000E+00  0.0000E+00  0.0000E+00
    -42.791  0.5477E+00  0.1954E-06  0.8215E-10  0.6546E-07  0.0000E+00  0.0000E+00  0.0000E+00  0.0000E+00  0.0000E+00
    -42.584  0.9007E+01  0.3217E-05  0.3795E-08  0.1084E-05  0.0000E+00  0.0000E+00  0.0000E+00  0.0000E+00  0.0000E+00
    -42.377  0.9175E-04  0.1088E-07  0.9696E-08  0.6642E-08  0.0000E+00  0.0000E+00  0.0000E+00  0.0000E+00  0.0000E+00
    -42.170  0.4400E-07  0.9212E-09  0.3941E-08  0.1162E-08  0.0000E+00  0.0000E+00  0.0000E+00  0.0000E+00  0.0000E+00
    -41.963  0.1164E-10  0.3573E-12  0.1655E-11  0.4904E-12  0.0000E+00  0.0000E+00  0.0000E+00  0.0000E+00  0.0000E+00
    -41.756  0.0000E+00  0.0000E+00  0.0000E+00  0.0000E+00  0.0000E+00  0.0000E+00  0.0000E+00  0.0000E+00  0.0000E+00
    -41.548  0.0000E+00  0.0000E+00  0.0000E+00  0.0000E+00  0.0000E+00  0.0000E+00  0.0000E+00  0.0000E+00  0.0000E+00
    -41.341  0.0000E+00  0.0000E+00  0.0000E+00  0.0000E+00  0.0000E+00  0.0000E+00  0.0000E+00  0.0000E+00  0.0000E+00
    -41.134  0.0000E+00  0.0000E+00  0.0000E+00  0.0000E+00  0.0000E+00  0.0000E+00  0.0000E+00  0.0000E+00  0.0000E+00
    -40.927  0.0000E+00  0.0000E+00  0.0000E+00  0.0000E+00  0.0000E+00  0.0000E+00  0.0000E+00  0.0000E+00  0.0000E+00
    -40.720  0.0000E+00  0.0000E+00  0.0000E+00  0.0000E+00  0.0000E+00  0.0000E+00  0.0000E+00  0.0000E+00  0.0000E+00
    -40.513  0.0000E+00  0.0000E+00  0.0000E+00  0.0000E+00  0.0000E+00  0.0000E+00  0.0000E+00  0.0000E+00  0.0000E+00
    -40.306  0.0000E+00  0.0000E+00  0.0000E+00  0.0000E+00  0.0000E+00  0.0000E+00  0.0000E+00  0.0000E+00  0.0000E+00
    -40.099  0.0000E+00  0.0000E+00  0.0000E+00  0.0000E+00  0.0000E+00  0.0000E+00  0.0000E+00  0.0000E+00  0.0000E+00
    -39.892  0.0000E+00  0.0000E+00  0.0000E+00  0.0000E+00  0.0000E+00  0.0000E+00  0.0000E+00  0.0000E+00  0.0000E+00
    -39.684  0.0000E+00  0.0000E+00  0.0000E+00  0.0000E+00  0.0000E+00  0.0000E+00  0.0000E+00  0.0000E+00  0.0000E+00
    -39.477  0.0000E+00  0.0000E+00  0.0000E+00  0.0000E+00  0.0000E+00  0.0000E+00  0.0000E+00  0.0000E+00  0.0000E+00
    -39.270  0.0000E+00  0.0000E+00  0.0000E+00  0.0000E+00  0.0000E+00  0.0000E+00  0.0000E+00  0.0000E+00  0.0000E+00
    -39.063  0.0000E+00  0.0000E+00  0.0000E+00  0.0000E+00  0.0000E+00  0.0000E+00  0.0000E+00  0.0000E+00  0.0000E+00
    -38.856  0.0000E+00  0.0000E+00  0.0000E+00  0.0000E+00  0.0000E+00  0.0000E+00  0.0000E+00  0.0000E+00  0.0000E+00
    -38.649  0.0000E+00  0.0000E+00  0.0000E+00  0.0000E+00  0.0000E+00  0.0000E+00  0.0000E+00  0.0000E+00  0.0000E+00
    -38.442  0.0000E+00  0.0000E+00  0.0000E+00  0.0000E+00  0.0000E+00  0.0000E+00  0.0000E+00  0.0000E+00  0.0000E+00
    -38.235  0.0000E+00  0.0000E+00  0.0000E+00  0.0000E+00  0.0000E+00  0.0000E+00  0.0000E+00  0.0000E+00  0.0000E+00
    -38.027  0.0000E+00  0.0000E+00  0.0000E+00  0.0000E+00  0.0000E+00  0.0000E+00  0.0000E+00  0.0000E+00  0.0000E+00
    -37.820  0.0000E+00  0.0000E+00  0.0000E+00  0.0000E+00  0.0000E+00  0.0000E+00  0.0000E+00  0.0000E+00  0.0000E+00
    -37.613  0.0000E+00  0.0000E+00  0.0000E+00  0.0000E+00  0.0000E+00  0.0000E+00  0.0000E+00  0.0000E+00  0.0000E+00
    -37.406  0.0000E+00  0.0000E+00  0.0000E+00  0.0000E+00  0.0000E+00  0.0000E+00  0.0000E+00  0.0000E+00  0.0000E+00
    -37.199  0.0000E+00  0.0000E+00  0.0000E+00  0.0000E+00  0.0000E+00  0.0000E+00  0.0000E+00  0.0000E+00  0.0000E+00
    -36.992  0.0000E+00  0.0000E+00  0.0000E+00  0.0000E+00  0.0000E+00  0.0000E+00  0.0000E+00  0.0000E+00  0.0000E+00
    -36.785  0.0000E+00  0.0000E+00  0.0000E+00  0.0000E+00  0.0000E+00  0.0000E+00  0.0000E+00  0.0000E+00  0.0000E+00
    -36.578  0.0000E+00  0.0000E+00  0.0000E+00  0.0000E+00  0.0000E+00  0.0000E+00  0.0000E+00  0.0000E+00  0.0000E+00
    -36.371  0.0000E+00  0.0000E+00  0.0000E+00  0.0000E+00  0.0000E+00  0.0000E+00  0.0000E+00  0.0000E+00  0.0000E+00
    -36.163  0.0000E+00  0.0000E+00  0.0000E+00  0.0000E+00  0.0000E+00  0.0000E+00  0.0000E+00  0.0000E+00  0.0000E+00
    -35.956  0.0000E+00  0.0000E+00  0.0000E+00  0.0000E+00  0.0000E+00  0.0000E+00  0.0000E+00  0.0000E+00  0.0000E+00
    -35.749  0.0000E+00  0.0000E+00  0.0000E+00  0.0000E+00  0.0000E+00  0.0000E+00  0.0000E+00  0.0000E+00  0.0000E+00
    -35.542  0.0000E+00  0.0000E+00  0.0000E+00  0.0000E+00  0.0000E+00  0.0000E+00  0.0000E+00  0.0000E+00  0.0000E+00
    -35.335  0.0000E+00  0.0000E+00  0.0000E+00  0.0000E+00  0.0000E+00  0.0000E+00  0.0000E+00  0.0000E+00  0.0000E+00
    -35.128  0.0000E+00  0.0000E+00  0.0000E+00  0.0000E+00  0.0000E+00  0.0000E+00  0.0000E+00  0.0000E+00  0.0000E+00
    -34.921  0.0000E+00  0.0000E+00  0.0000E+00  0.0000E+00  0.0000E+00  0.0000E+00  0.0000E+00  0.0000E+00  0.0000E+00
    -34.714  0.0000E+00  0.0000E+00  0.0000E+00  0.0000E+00  0.0000E+00  0.0000E+00  0.0000E+00  0.0000E+00  0.0000E+00
    -34.507  0.0000E+00  0.0000E+00  0.0000E+00  0.0000E+00  0.0000E+00  0.0000E+00  0.0000E+00  0.0000E+00  0.0000E+00
    -34.299  0.0000E+00  0.0000E+00  0.0000E+00  0.0000E+00  0.0000E+00  0.0000E+00  0.0000E+00  0.0000E+00  0.0000E+00
    -34.092  0.0000E+00  0.0000E+00  0.0000E+00  0.0000E+00  0.0000E+00  0.0000E+00  0.0000E+00  0.0000E+00  0.0000E+00
    -33.885  0.0000E+00  0.0000E+00  0.0000E+00  0.0000E+00  0.0000E+00  0.0000E+00  0.0000E+00  0.0000E+00  0.0000E+00
    -33.678  0.0000E+00  0.0000E+00  0.0000E+00  0.0000E+00  0.0000E+00  0.0000E+00  0.0000E+00  0.0000E+00  0.0000E+00
    -33.471  0.0000E+00  0.0000E+00  0.0000E+00  0.0000E+00  0.0000E+00  0.0000E+00  0.0000E+00  0.0000E+00  0.0000E+00
    -33.264  0.0000E+00  0.0000E+00  0.0000E+00  0.0000E+00  0.0000E+00  0.0000E+00  0.0000E+00  0.0000E+00  0.0000E+00
    -33.057  0.0000E+00  0.0000E+00  0.0000E+00  0.0000E+00  0.0000E+00  0.0000E+00  0.0000E+00  0.0000E+00  0.0000E+00
    -32.850  0.0000E+00  0.0000E+00  0.0000E+00  0.0000E+00  0.0000E+00  0.0000E+00  0.0000E+00  0.0000E+00  0.0000E+00
    -32.642  0.0000E+00  0.0000E+00  0.0000E+00  0.0000E+00  0.0000E+00  0.0000E+00  0.0000E+00  0.0000E+00  0.0000E+00
    -32.435  0.0000E+00  0.0000E+00  0.0000E+00  0.0000E+00  0.0000E+00  0.0000E+00  0.0000E+00  0.0000E+00  0.0000E+00
    -32.228  0.0000E+00  0.0000E+00  0.0000E+00  0.0000E+00  0.0000E+00  0.0000E+00  0.0000E+00  0.0000E+00  0.0000E+00
    -32.021  0.0000E+00  0.0000E+00  0.0000E+00  0.0000E+00  0.0000E+00  0.0000E+00  0.0000E+00  0.0000E+00  0.0000E+00
    -31.814  0.0000E+00  0.0000E+00  0.0000E+00  0.0000E+00  0.0000E+00  0.0000E+00  0.0000E+00  0.0000E+00  0.0000E+00
    -31.607  0.0000E+00  0.0000E+00  0.0000E+00  0.0000E+00  0.0000E+00  0.0000E+00  0.0000E+00  0.0000E+00  0.0000E+00
    -31.400  0.0000E+00  0.0000E+00  0.0000E+00  0.0000E+00  0.0000E+00  0.0000E+00  0.0000E+00  0.0000E+00  0.0000E+00
    -31.193  0.0000E+00  0.0000E+00  0.0000E+00  0.0000E+00  0.0000E+00  0.0000E+00  0.0000E+00  0.0000E+00  0.0000E+00
    -30.986  0.0000E+00  0.0000E+00  0.0000E+00  0.0000E+00  0.0000E+00  0.0000E+00  0.0000E+00  0.0000E+00  0.0000E+00
    -30.778  0.0000E+00  0.0000E+00  0.0000E+00  0.0000E+00  0.0000E+00  0.0000E+00  0.0000E+00  0.0000E+00  0.0000E+00
    -30.571  0.0000E+00  0.0000E+00  0.0000E+00  0.0000E+00  0.0000E+00  0.0000E+00  0.0000E+00  0.0000E+00  0.0000E+00
    -30.364  0.0000E+00  0.0000E+00  0.0000E+00  0.0000E+00  0.0000E+00  0.0000E+00  0.0000E+00  0.0000E+00  0.0000E+00
    -30.157  0.0000E+00  0.0000E+00  0.0000E+00  0.0000E+00  0.0000E+00  0.0000E+00  0.0000E+00  0.0000E+00  0.0000E+00
    -29.950  0.0000E+00  0.0000E+00  0.0000E+00  0.0000E+00  0.0000E+00  0.0000E+00  0.0000E+00  0.0000E+00  0.0000E+00
    -29.743  0.0000E+00  0.0000E+00  0.0000E+00  0.0000E+00  0.0000E+00  0.0000E+00  0.0000E+00  0.0000E+00  0.0000E+00
    -29.536  0.0000E+00  0.0000E+00  0.0000E+00  0.0000E+00  0.0000E+00  0.0000E+00  0.0000E+00  0.0000E+00  0.0000E+00
    -29.329  0.0000E+00  0.0000E+00  0.0000E+00  0.0000E+00  0.0000E+00  0.0000E+00  0.0000E+00  0.0000E+00  0.0000E+00
    -29.122  0.0000E+00  0.0000E+00  0.0000E+00  0.0000E+00  0.0000E+00  0.0000E+00  0.0000E+00  0.0000E+00  0.0000E+00
    -28.914  0.0000E+00  0.0000E+00  0.0000E+00  0.0000E+00  0.0000E+00  0.0000E+00  0.0000E+00  0.0000E+00  0.0000E+00
    -28.707  0.0000E+00  0.0000E+00  0.0000E+00  0.0000E+00  0.0000E+00  0.0000E+00  0.0000E+00  0.0000E+00  0.0000E+00
    -28.500  0.0000E+00  0.0000E+00  0.0000E+00  0.0000E+00  0.0000E+00  0.0000E+00  0.0000E+00  0.0000E+00  0.0000E+00
    -28.293  0.0000E+00  0.0000E+00  0.0000E+00  0.0000E+00  0.0000E+00  0.0000E+00  0.0000E+00  0.0000E+00  0.0000E+00
    -28.086  0.0000E+00  0.0000E+00  0.0000E+00  0.0000E+00  0.0000E+00  0.0000E+00  0.0000E+00  0.0000E+00  0.0000E+00
    -27.879  0.0000E+00  0.0000E+00  0.0000E+00  0.0000E+00  0.0000E+00  0.0000E+00  0.0000E+00  0.0000E+00  0.0000E+00
    -27.672  0.0000E+00  0.0000E+00  0.0000E+00  0.0000E+00  0.0000E+00  0.0000E+00  0.0000E+00  0.0000E+00  0.0000E+00
    -27.465  0.0000E+00  0.0000E+00  0.0000E+00  0.0000E+00  0.0000E+00  0.0000E+00  0.0000E+00  0.0000E+00  0.0000E+00
    -27.258  0.0000E+00  0.0000E+00  0.0000E+00  0.0000E+00  0.0000E+00  0.0000E+00  0.0000E+00  0.0000E+00  0.0000E+00
    -27.050  0.2712E-23  0.6281E-24  0.5907E-25  0.8194E-25  0.0000E+00  0.0000E+00  0.0000E+00  0.0000E+00  0.0000E+00
    -26.843  0.1352E-08  0.5103E-10  0.5516E-10  0.9096E-10  0.0000E+00  0.0000E+00  0.0000E+00  0.0000E+00  0.0000E+00
    -26.636  0.5453E-06  0.2717E-07  0.1948E-07  0.3056E-07  0.0000E+00  0.0000E+00  0.0000E+00  0.0000E+00  0.0000E+00
    -26.429  0.8440E-06  0.3694E-07  0.4233E-07  0.4490E-07  0.0000E+00  0.0000E+00  0.0000E+00  0.0000E+00  0.0000E+00
    -26.222  0.3090E-08  0.8541E-10  0.8544E-10  0.2846E-09  0.0000E+00  0.0000E+00  0.0000E+00  0.0000E+00  0.0000E+00
    -26.015  0.0000E+00  0.0000E+00  0.0000E+00  0.0000E+00  0.0000E+00  0.0000E+00  0.0000E+00  0.0000E+00  0.0000E+00
    -25.808  0.0000E+00  0.0000E+00  0.0000E+00  0.0000E+00  0.0000E+00  0.0000E+00  0.0000E+00  0.0000E+00  0.0000E+00
    -25.601  0.0000E+00  0.0000E+00  0.0000E+00  0.0000E+00  0.0000E+00  0.0000E+00  0.0000E+00  0.0000E+00  0.0000E+00
    -25.393  0.0000E+00  0.0000E+00  0.0000E+00  0.0000E+00  0.0000E+00  0.0000E+00  0.0000E+00  0.0000E+00  0.0000E+00
    -25.186  0.0000E+00  0.0000E+00  0.0000E+00  0.0000E+00  0.0000E+00  0.0000E+00  0.0000E+00  0.0000E+00  0.0000E+00
    -24.979  0.0000E+00  0.0000E+00  0.0000E+00  0.0000E+00  0.0000E+00  0.0000E+00  0.0000E+00  0.0000E+00  0.0000E+00
    -24.772  0.0000E+00  0.0000E+00  0.0000E+00  0.0000E+00  0.0000E+00  0.0000E+00  0.0000E+00  0.0000E+00  0.0000E+00
    -24.565  0.0000E+00  0.0000E+00  0.0000E+00  0.0000E+00  0.0000E+00  0.0000E+00  0.0000E+00  0.0000E+00  0.0000E+00
    -24.358  0.0000E+00  0.0000E+00  0.0000E+00  0.0000E+00  0.0000E+00  0.0000E+00  0.0000E+00  0.0000E+00  0.0000E+00
    -24.151  0.0000E+00  0.0000E+00  0.0000E+00  0.0000E+00  0.0000E+00  0.0000E+00  0.0000E+00  0.0000E+00  0.0000E+00
    -23.944  0.0000E+00  0.0000E+00  0.0000E+00  0.0000E+00  0.0000E+00  0.0000E+00  0.0000E+00  0.0000E+00  0.0000E+00
    -23.737  0.0000E+00  0.0000E+00  0.0000E+00  0.0000E+00  0.0000E+00  0.0000E+00  0.0000E+00  0.0000E+00  0.0000E+00
    -23.529  0.0000E+00  0.0000E+00  0.0000E+00  0.0000E+00  0.0000E+00  0.0000E+00  0.0000E+00  0.0000E+00  0.0000E+00
    -23.322  0.0000E+00  0.0000E+00  0.0000E+00  0.0000E+00  0.0000E+00  0.0000E+00  0.0000E+00  0.0000E+00  0.0000E+00
    -23.115  0.0000E+00  0.0000E+00  0.0000E+00  0.0000E+00  0.0000E+00  0.0000E+00  0.0000E+00  0.0000E+00  0.0000E+00
    -22.908  0.0000E+00  0.0000E+00  0.0000E+00  0.0000E+00  0.0000E+00  0.0000E+00  0.0000E+00  0.0000E+00  0.0000E+00
    -22.701  0.0000E+00  0.0000E+00  0.0000E+00  0.0000E+00  0.0000E+00  0.0000E+00  0.0000E+00  0.0000E+00  0.0000E+00
    -22.494  0.0000E+00  0.0000E+00  0.0000E+00  0.0000E+00  0.0000E+00  0.0000E+00  0.0000E+00  0.0000E+00  0.0000E+00
    -22.287  0.0000E+00  0.0000E+00  0.0000E+00  0.0000E+00  0.0000E+00  0.0000E+00  0.0000E+00  0.0000E+00  0.0000E+00
    -22.080  0.0000E+00  0.0000E+00  0.0000E+00  0.0000E+00  0.0000E+00  0.0000E+00  0.0000E+00  0.0000E+00  0.0000E+00
    -21.873  0.0000E+00  0.0000E+00  0.0000E+00  0.0000E+00  0.0000E+00  0.0000E+00  0.0000E+00  0.0000E+00  0.0000E+00
    -21.665  0.0000E+00  0.0000E+00  0.0000E+00  0.0000E+00  0.0000E+00  0.0000E+00  0.0000E+00  0.0000E+00  0.0000E+00
    -21.458  0.0000E+00  0.0000E+00  0.0000E+00  0.0000E+00  0.0000E+00  0.0000E+00  0.0000E+00  0.0000E+00  0.0000E+00
    -21.251  0.0000E+00  0.0000E+00  0.0000E+00  0.0000E+00  0.0000E+00  0.0000E+00  0.0000E+00  0.0000E+00  0.0000E+00
    -21.044  0.0000E+00  0.0000E+00  0.0000E+00  0.0000E+00  0.0000E+00  0.0000E+00  0.0000E+00  0.0000E+00  0.0000E+00
    -20.837  0.0000E+00  0.0000E+00  0.0000E+00  0.0000E+00  0.0000E+00  0.0000E+00  0.0000E+00  0.0000E+00  0.0000E+00
    -20.630  0.0000E+00  0.0000E+00  0.0000E+00  0.0000E+00  0.0000E+00  0.0000E+00  0.0000E+00  0.0000E+00  0.0000E+00
    -20.423  0.0000E+00  0.0000E+00  0.0000E+00  0.0000E+00  0.0000E+00  0.0000E+00  0.0000E+00  0.0000E+00  0.0000E+00
    -20.216  0.0000E+00  0.0000E+00  0.0000E+00  0.0000E+00  0.0000E+00  0.0000E+00  0.0000E+00  0.0000E+00  0.0000E+00
    -20.008  0.0000E+00  0.0000E+00  0.0000E+00  0.0000E+00  0.0000E+00  0.0000E+00  0.0000E+00  0.0000E+00  0.0000E+00
    -19.801  0.0000E+00  0.0000E+00  0.0000E+00  0.0000E+00  0.0000E+00  0.0000E+00  0.0000E+00  0.0000E+00  0.0000E+00
    -19.594  0.0000E+00  0.0000E+00  0.0000E+00  0.0000E+00  0.0000E+00  0.0000E+00  0.0000E+00  0.0000E+00  0.0000E+00
    -19.387  0.0000E+00  0.0000E+00  0.0000E+00  0.0000E+00  0.0000E+00  0.0000E+00  0.0000E+00  0.0000E+00  0.0000E+00
    -19.180  0.0000E+00  0.0000E+00  0.0000E+00  0.0000E+00  0.0000E+00  0.0000E+00  0.0000E+00  0.0000E+00  0.0000E+00
    -18.973  0.0000E+00  0.0000E+00  0.0000E+00  0.0000E+00  0.0000E+00  0.0000E+00  0.0000E+00  0.0000E+00  0.0000E+00
    -18.766  0.0000E+00  0.0000E+00  0.0000E+00  0.0000E+00  0.0000E+00  0.0000E+00  0.0000E+00  0.0000E+00  0.0000E+00
    -18.559  0.0000E+00  0.0000E+00  0.0000E+00  0.0000E+00  0.0000E+00  0.0000E+00  0.0000E+00  0.0000E+00  0.0000E+00